 Entering Gaussian System, Link 0=/cm/shared/gaussian/g09.e01/intel64-sandybridge/g09/g09
 Initial command:
 /cm/shared/gaussian/g09.e01/intel64-sandybridge/g09/l1.exe "/local/scratch/m.peluso/128_wat/370/Gau-62490.inp" -scrdir="/local/scratch/m.peluso/128_wat/370/"
 Entering Link 1 = /cm/shared/gaussian/g09.e01/intel64-sandybridge/g09/l1.exe PID=     62491.
  
 Copyright (c) 1988,1990,1992,1993,1995,1998,2003,2009,2015,
            Gaussian, Inc.  All Rights Reserved.
  
 This is part of the Gaussian(R) 09 program.  It is based on
 the Gaussian(R) 03 system (copyright 2003, Gaussian, Inc.),
 the Gaussian(R) 98 system (copyright 1998, Gaussian, Inc.),
 the Gaussian(R) 94 system (copyright 1995, Gaussian, Inc.),
 the Gaussian 92(TM) system (copyright 1992, Gaussian, Inc.),
 the Gaussian 90(TM) system (copyright 1990, Gaussian, Inc.),
 the Gaussian 88(TM) system (copyright 1988, Gaussian, Inc.),
 the Gaussian 86(TM) system (copyright 1986, Carnegie Mellon
 University), and the Gaussian 82(TM) system (copyright 1983,
 Carnegie Mellon University). Gaussian is a federally registered
 trademark of Gaussian, Inc.
  
 This software contains proprietary and confidential information,
 including trade secrets, belonging to Gaussian, Inc.
  
 This software is provided under written license and may be
 used, copied, transmitted, or stored only in accord with that
 written license.
  
 The following legend is applicable only to US Government
 contracts under FAR:
  
                    RESTRICTED RIGHTS LEGEND
  
 Use, reproduction and disclosure by the US Government is
 subject to restrictions as set forth in subparagraphs (a)
 and (c) of the Commercial Computer Software - Restricted
 Rights clause in FAR 52.227-19.
  
 Gaussian, Inc.
 340 Quinnipiac St., Bldg. 40, Wallingford CT 06492
  
  
 ---------------------------------------------------------------
 Warning -- This program may not be used in any manner that
 competes with the business of Gaussian, Inc. or will provide
 assistance to any competitor of Gaussian, Inc.  The licensee
 of this program is prohibited from giving any competitor of
 Gaussian, Inc. access to this program.  By using this program,
 the user acknowledges that Gaussian, Inc. is engaged in the
 business of creating and licensing software in the field of
 computational chemistry and represents and warrants to the
 licensee that it is not a competitor of Gaussian, Inc. and that
 it will not use this program in any manner prohibited above.
 ---------------------------------------------------------------
  

 Cite this work as:
 Gaussian 09, Revision E.01,
 M. J. Frisch, G. W. Trucks, H. B. Schlegel, G. E. Scuseria, 
 M. A. Robb, J. R. Cheeseman, G. Scalmani, V. Barone, B. Mennucci, 
 G. A. Petersson, H. Nakatsuji, M. Caricato, X. Li, H. P. Hratchian, 
 A. F. Izmaylov, J. Bloino, G. Zheng, J. L. Sonnenberg, M. Hada, 
 M. Ehara, K. Toyota, R. Fukuda, J. Hasegawa, M. Ishida, T. Nakajima, 
 Y. Honda, O. Kitao, H. Nakai, T. Vreven, J. A. Montgomery, Jr., 
 J. E. Peralta, F. Ogliaro, M. Bearpark, J. J. Heyd, E. Brothers, 
 K. N. Kudin, V. N. Staroverov, T. Keith, R. Kobayashi, J. Normand, 
 K. Raghavachari, A. Rendell, J. C. Burant, S. S. Iyengar, J. Tomasi, 
 M. Cossi, N. Rega, J. M. Millam, M. Klene, J. E. Knox, J. B. Cross, 
 V. Bakken, C. Adamo, J. Jaramillo, R. Gomperts, R. E. Stratmann, 
 O. Yazyev, A. J. Austin, R. Cammi, C. Pomelli, J. W. Ochterski, 
 R. L. Martin, K. Morokuma, V. G. Zakrzewski, G. A. Voth, 
 P. Salvador, J. J. Dannenberg, S. Dapprich, A. D. Daniels, 
 O. Farkas, J. B. Foresman, J. V. Ortiz, J. Cioslowski, 
 and D. J. Fox, Gaussian, Inc., Wallingford CT, 2013.
 
 ******************************************
 Gaussian 09:  ES64L-G09RevE.01 30-Nov-2015
                 8-May-2018 
 ******************************************
 %Mem=110GB
 %NProcShared=64
 Will use up to   64 processors via shared memory.
 %chk=snap73.chk
 ----------------------------------------------
 #p PBE1PBE/cc-pvDZ force Counterpoise=2 noSymm
 ----------------------------------------------
 1/10=7,30=1,38=1,62=2/1,3;
 2/12=2,15=1,17=6,18=5,40=1/2;
 1/10=7,30=1,38=1,53=2,62=2,63=101/22;
 3/5=16,11=2,16=1,25=1,30=1,71=1,74=-13/1,2,3;
 4//1;
 5/5=2,38=5/2;
 6/7=2,8=2,9=2,10=2,28=1/1;
 7/7=1,29=1,30=1,33=-1/1,2,3,16;
 1/10=7,30=1,53=2,62=2,63=101/22;
 3/5=7,6=11,11=2,16=1,25=1,30=1,71=1,74=-13,82=7/1,2,3;
 4//1;
 5/5=2,38=5/2;
 6/7=2,8=2,9=2,10=2,28=1/1;
 7/7=1,29=1,30=1,33=-1/1,2,3,16;
 1/10=7,30=1,53=2,62=2,63=101/22(-5);
 7/9=1,29=1,44=-1/16;
 1/10=7,30=1,62=2/3;
 99//99;
 Leave Link    1 at Tue May  8 06:59:52 2018, MaxMem= 14763950080 cpu:       136.6
 (Enter /cm/shared/gaussian/g09.e01/intel64-sandybridge/g09/l101.exe)
 ---------------------------------------
 forces on chloride comput - NWATER: 128
 ---------------------------------------
 Symbolic Z-matrix:
 Charge = -1 Multiplicity = 1 in supermolecule
 Charge = -1 Multiplicity = 1 in fragment      1.
 Charge =  0 Multiplicity = 1 in fragment      2.
 Br(Fragment=1)        20.       20.       20. 
 O(Fragment=2)         18.56     19.12     17.55 
 H(Fragment=2)         18.94     19.73     16.91 
 H(Fragment=2)         18.91     19.41     18.39 
 O(Fragment=2)         22.21     17.71     19.75 
 H(Fragment=2)         21.59     18.4      19.99 
 H(Fragment=2)         21.69     17.09     19.25 
 O(Fragment=2)         19.46     18.37     22.77 
 H(Fragment=2)         19.85     18.75     23.56 
 H(Fragment=2)         19.76     18.94     22.06 
 O(Fragment=2)         22.89     21.31     20.73 
 H(Fragment=2)         23.37     21.03     19.95 
 H(Fragment=2)         22.15     20.7      20.79 
 O(Fragment=2)         21.16     21.89     17.35 
 H(Fragment=2)         21.36     22.7      17.82 
 H(Fragment=2)         20.8      21.31     18.01 
 O(Fragment=2)         19.88     23.31     20.97 
 H(Fragment=2)         19.14     23.67     20.47 
 H(Fragment=2)         19.54     22.5      21.34 
 O(Fragment=2)         16.48     20.24     20.54 
 H(Fragment=2)         17.09     19.72     20.01 
 H(Fragment=2)         16.84     21.12     20.52 
 O(Fragment=2)         18.99     21.49     23. 
 H(Fragment=2)         18.65     20.7      22.58 
 H(Fragment=2)         19.85     21.23     23.32 
 O(Fragment=2)         17.69     17.04     20.43 
 H(Fragment=2)         18.32     17.22     21.14 
 H(Fragment=2)         18.06     17.48     19.67 
 O(Fragment=2)         21.8      21.12     23.15 
 H(Fragment=2)         22.32     21.02     22.36 
 H(Fragment=2)         21.75     22.07     23.28 
 O(Fragment=2)         22.19     19.63     16.3 
 H(Fragment=2)         21.74     20.42     16.6 
 H(Fragment=2)         23.       19.95     15.91 
 O(Fragment=2)         24.12     19.87     18.84 
 H(Fragment=2)         23.65     19.33     18.2 
 H(Fragment=2)         24.43     20.62     18.33 
 O(Fragment=2)         22.71     23.92     20.02 
 H(Fragment=2)         22.78     23.07     20.46 
 H(Fragment=2)         23.12     24.54     20.62 
 O(Fragment=2)         16.02     20.34     16.65 
 H(Fragment=2)         16.18     21.28     16.62 
 H(Fragment=2)         16.84     19.97     17. 
 O(Fragment=2)         21.51     24.04     22.96 
 H(Fragment=2)         20.9      23.81     22.26 
 H(Fragment=2)         22.05     24.74     22.6 
 O(Fragment=2)         18.42     17.36     15.45 
 H(Fragment=2)         17.47     17.49     15.44 
 H(Fragment=2)         18.71     17.79     16.26 
 O(Fragment=2)         20.5      15.65     18.74 
 H(Fragment=2)         20.45     15.36     19.65 
 H(Fragment=2)         19.74     15.26     18.32 
 O(Fragment=2)         20.61     15.58     21.44 
 H(Fragment=2)         21.32     15.49     22.08 
 H(Fragment=2)         19.87     15.12     21.85 
 O(Fragment=2)         24.86     17.18     19.71 
 H(Fragment=2)         23.96     17.43     19.9 
 H(Fragment=2)         25.2      17.88     19.16 
 O(Fragment=2)         17.82     17.       24.34 
 H(Fragment=2)         17.38     17.78     24.69 
 H(Fragment=2)         18.43     17.34     23.69 
 O(Fragment=2)         18.57     24.12     23.66 
 H(Fragment=2)         18.77     23.23     23.37 
 H(Fragment=2)         18.61     24.64     22.86 
 O(Fragment=2)         25.33     20.79     21.95 
 H(Fragment=2)         25.12     21.67     22.27 
 H(Fragment=2)         24.75     20.66     21.19 
 O(Fragment=2)         15.01     17.38     19.97 
 H(Fragment=2)         15.91     17.1      20.12 
 H(Fragment=2)         14.78     17.04     19.11 
 O(Fragment=2)         17.17     24.18     21.08 
 H(Fragment=2)         16.63     23.9      20.34 
 H(Fragment=2)         16.77     23.77     21.84 
 O(Fragment=2)         19.95     23.51     15.47 
 H(Fragment=2)         19.76     22.84     14.82 
 H(Fragment=2)         20.71     23.18     15.95 
 O(Fragment=2)         23.26     19.71     25.08 
 H(Fragment=2)         22.64     20.13     24.49 
 H(Fragment=2)         23.71     20.43     25.52 
 O(Fragment=2)         14.27     20.       22.05 
 H(Fragment=2)         14.95     20.04     21.37 
 H(Fragment=2)         13.62     19.39     21.71 
 O(Fragment=2)         22.38     16.05     16.83 
 H(Fragment=2)         21.72     15.76     17.45 
 H(Fragment=2)         21.93     16.68     16.27 
 O(Fragment=2)         23.2      14.81     19.86 
 H(Fragment=2)         22.96     15.67     20.22 
 H(Fragment=2)         23.58     15.01     19. 
 O(Fragment=2)         13.87     20.81     18.88 
 H(Fragment=2)         14.77     20.55     18.68 
 H(Fragment=2)         13.82     21.72     18.59 
 O(Fragment=2)         20.06     19.19     25.38 
 H(Fragment=2)         20.06     18.45     25.99 
 H(Fragment=2)         19.58     19.88     25.84 
 O(Fragment=2)         15.63     23.66     18.54 
 H(Fragment=2)         16.44     23.69     18.02 
 H(Fragment=2)         14.96     23.37     17.92 
 O(Fragment=2)         18.44     20.34     14.73 
 H(Fragment=2)         18.11     19.44     14.71 
 H(Fragment=2)         17.69     20.87     14.99 
 O(Fragment=2)         17.86     15.42     17.58 
 H(Fragment=2)         18.19     15.51     16.69 
 H(Fragment=2)         17.       15.83     17.57 
 O(Fragment=2)         16.09     22.53     23.63 
 H(Fragment=2)         16.48     21.74     24.01 
 H(Fragment=2)         16.35     23.23     24.23 
 O(Fragment=2)         18.8      25.33     17.38 
 H(Fragment=2)         19.31     25.46     18.17 
 H(Fragment=2)         19.26     24.64     16.91 
 O(Fragment=2)         15.79     18.71     24.27 
 H(Fragment=2)         14.97     18.46     24.69 
 H(Fragment=2)         15.54     19.04     23.41 
 O(Fragment=2)         24.57     22.18     17.36 
 H(Fragment=2)         24.05     22.94     17.11 
 H(Fragment=2)         25.29     22.16     16.72 
 O(Fragment=2)         16.92     23.       16.2 
 H(Fragment=2)         17.67     23.59     16.14 
 H(Fragment=2)         16.24     23.41     15.67 
 O(Fragment=2)         25.27     17.55     22.75 
 H(Fragment=2)         24.96     18.45     22.62 
 H(Fragment=2)         25.77     17.36     21.95 
 O(Fragment=2)         21.06     20.46     13.91 
 H(Fragment=2)         21.51     19.75     14.37 
 H(Fragment=2)         20.13     20.23     13.97 
 O(Fragment=2)         15.39     16.34     22.62 
 H(Fragment=2)         15.64     16.44     21.7 
 H(Fragment=2)         16.14     16.67     23.11 
 O(Fragment=2)         22.94     24.38     17.08 
 H(Fragment=2)         23.36     24.37     17.95 
 H(Fragment=2)         23.26     25.18     16.67 
 O(Fragment=2)         21.15     23.2      25.51 
 H(Fragment=2)         21.31     23.59     24.65 
 H(Fragment=2)         20.6      22.43     25.33 
 O(Fragment=2)         21.36     26.       18.74 
 H(Fragment=2)         21.68     25.43     18.04 
 H(Fragment=2)         21.78     25.66     19.53 
 O(Fragment=2)         18.19     14.65     22.72 
 H(Fragment=2)         17.93     15.4      23.25 
 H(Fragment=2)         17.7      14.76     21.9 
 O(Fragment=2)         20.44     15.73     24.77 
 H(Fragment=2)         21.27     16.21     24.78 
 H(Fragment=2)         19.77     16.41     24.91 
 O(Fragment=2)         15.83     17.66     15.59 
 H(Fragment=2)         15.06     17.49     15.04 
 H(Fragment=2)         15.7      18.54     15.93 
 O(Fragment=2)         23.03     16.88     24.63 
 H(Fragment=2)         23.28     17.76     24.9 
 H(Fragment=2)         23.73     16.61     24.02 
 O(Fragment=2)         17.16     26.72     21.13 
 H(Fragment=2)         18.03     27.07     21.3 
 H(Fragment=2)         17.3      25.79     20.96 
 O(Fragment=2)         24.86     22.03     24.61 
 H(Fragment=2)         25.18     22.59     25.31 
 H(Fragment=2)         24.54     22.63     23.94 
 O(Fragment=2)         15.91     14.73     19.94 
 H(Fragment=2)         15.26     14.84     19.25 
 H(Fragment=2)         16.66     14.33     19.5 
 O(Fragment=2)         21.12     12.75     19.98 
 H(Fragment=2)         20.92     12.73     20.92 
 H(Fragment=2)         21.63     13.55     19.87 
 O(Fragment=2)         25.06     23.96     21.89 
 H(Fragment=2)         25.9      24.38     21.69 
 H(Fragment=2)         24.72     24.46     22.63 
 O(Fragment=2)         26.02     17.27     16.69 
 H(Fragment=2)         26.08     16.4      16.28 
 H(Fragment=2)         25.53     17.12     17.5 
 O(Fragment=2)         19.97     15.79     13.9 
 H(Fragment=2)         19.46     15.33     13.23 
 H(Fragment=2)         19.44     16.55     14.13 
 O(Fragment=2)         12.83     19.26     17.01 
 H(Fragment=2)         12.31     18.68     17.57 
 H(Fragment=2)         13.34     19.79     17.63 
 O(Fragment=2)         13.27     21.91     23.9 
 H(Fragment=2)         13.36     22.12     24.83 
 H(Fragment=2)         14.       21.33     23.71 
 O(Fragment=2)         25.17     19.34     15.05 
 H(Fragment=2)         25.62     18.56     15.36 
 H(Fragment=2)         25.73     20.07     15.33 
 O(Fragment=2)         22.78     21.74     26.99 
 H(Fragment=2)         22.51     22.39     26.33 
 H(Fragment=2)         22.56     22.15     27.83 
 O(Fragment=2)         23.55     22.41     13.95 
 H(Fragment=2)         23.02     23.2      13.9 
 H(Fragment=2)         22.97     21.72     13.61 
 O(Fragment=2)         18.55     21.25     27.01 
 H(Fragment=2)         17.7      21.64     26.8 
 H(Fragment=2)         18.58     21.23     27.97 
 O(Fragment=2)         20.23     12.85     22.36 
 H(Fragment=2)         20.37     12.36     23.17 
 H(Fragment=2)         19.34     13.19     22.45 
 O(Fragment=2)         12.67     22.4      21.22 
 H(Fragment=2)         12.92     21.71     20.61 
 H(Fragment=2)         13.08     22.16     22.05 
 O(Fragment=2)         12.81     17.01     21.72 
 H(Fragment=2)         12.66     16.89     20.78 
 H(Fragment=2)         13.71     16.72     21.86 
 O(Fragment=2)         15.39     26.67     18.69 
 H(Fragment=2)         14.53     26.51     19.06 
 H(Fragment=2)         15.99     26.17     19.25 
 O(Fragment=2)         19.12     25.66     13.94 
 H(Fragment=2)         19.75     25.45     13.24 
 H(Fragment=2)         19.37     25.08     14.66 
 O(Fragment=2)         20.24     26.57     24.94 
 H(Fragment=2)         19.47     26.37     25.47 
 H(Fragment=2)         20.58     25.71     24.7 
 O(Fragment=2)         22.73     19.02     27.84 
 H(Fragment=2)         22.26     19.27     27.04 
 H(Fragment=2)         23.05     19.85     28.19 
 O(Fragment=2)         22.62     12.74     17.62 
 H(Fragment=2)         21.86     13.27     17.37 
 H(Fragment=2)         22.4      12.41     18.49 
 O(Fragment=2)         25.1      14.29     17.07 
 H(Fragment=2)         24.9      13.36     17.12 
 H(Fragment=2)         24.28     14.7      16.83 
 O(Fragment=2)         22.33     26.82     22.16 
 H(Fragment=2)         22.3      27.72     22.49 
 H(Fragment=2)         23.02     26.84     21.49 
 O(Fragment=2)         17.35     15.51     26.64 
 H(Fragment=2)         17.34     14.55     26.64 
 H(Fragment=2)         17.69     15.75     25.77 
 O(Fragment=2)         22.29     13.63     24.73 
 H(Fragment=2)         21.54     14.23     24.64 
 H(Fragment=2)         22.7      13.87     25.55 
 O(Fragment=2)         19.65     27.68     21.86 
 H(Fragment=2)         20.19     27.96     21.13 
 H(Fragment=2)         20.24     27.18     22.42 
 O(Fragment=2)         16.73     14.77     15.18 
 H(Fragment=2)         16.66     13.84     15.4 
 H(Fragment=2)         17.63     14.87     14.87 
 O(Fragment=2)         17.99     25.58     26.13 
 H(Fragment=2)         17.94     25.08     25.32 
 H(Fragment=2)         17.25     26.19     26.08 
 O(Fragment=2)         21.59     13.78     14.69 
 H(Fragment=2)         22.52     13.95     14.83 
 H(Fragment=2)         21.19     14.64     14.62 
 O(Fragment=2)         14.44     15.19     17.73 
 H(Fragment=2)         14.5      14.5      17.06 
 H(Fragment=2)         13.61     15.62     17.55 
 O(Fragment=2)         28.11     19.61     22.78 
 H(Fragment=2)         28.59     20.13     22.13 
 H(Fragment=2)         27.22     19.96     22.74 
 O(Fragment=2)         20.64     28.5      19.48 
 H(Fragment=2)         20.89     29.13     18.8 
 H(Fragment=2)         20.64     27.65     19.02 
 O(Fragment=2)         19.73     22.91     12.58 
 H(Fragment=2)         18.84     22.64     12.34 
 H(Fragment=2)         20.25     22.11     12.49 
 O(Fragment=2)         13.71     23.36     16.74 
 H(Fragment=2)         13.6      22.8      15.97 
 H(Fragment=2)         13.18     24.14     16.55 
 O(Fragment=2)         24.34     26.93     20.36 
 H(Fragment=2)         24.73     26.33     19.73 
 H(Fragment=2)         24.93     27.69     20.37 
 O(Fragment=2)         24.27     12.35     20.84 
 H(Fragment=2)         24.04     12.19     21.76 
 H(Fragment=2)         23.62     12.99     20.53 
 O(Fragment=2)         22.66     20.92     11.61 
 H(Fragment=2)         22.25     20.63     12.42 
 H(Fragment=2)         21.93     21.05     11.01 
 O(Fragment=2)         20.95     16.92     27.29 
 H(Fragment=2)         21.25     16.01     27.3 
 H(Fragment=2)         21.75     17.44     27.37 
 O(Fragment=2)         17.03     12.67     18.49 
 H(Fragment=2)         16.66     12.78     17.61 
 H(Fragment=2)         17.78     12.1      18.36 
 O(Fragment=2)         20.04     24.8      27.49 
 H(Fragment=2)         20.41     24.13     26.91 
 H(Fragment=2)         19.11     24.83     27.27 
 O(Fragment=2)         26.41     22.1      15.03 
 H(Fragment=2)         27.06     22.38     14.39 
 H(Fragment=2)         25.57     22.4      14.66 
 O(Fragment=2)         16.76     27.49     16.52 
 H(Fragment=2)         17.54     26.97     16.69 
 H(Fragment=2)         16.22     27.36     17.3 
 O(Fragment=2)         24.85     24.95     24.32 
 H(Fragment=2)         24.39     25.55     24.91 
 H(Fragment=2)         25.75     25.28     24.3 
 O(Fragment=2)         27.33     24.       19.54 
 H(Fragment=2)         28.09     24.54     19.72 
 H(Fragment=2)         26.86     24.46     18.84 
 O(Fragment=2)         19.67     11.13     18.56 
 H(Fragment=2)         20.11     11.77     19.11 
 H(Fragment=2)         19.82     10.29     19. 
 O(Fragment=2)         26.31     25.13     17.14 
 H(Fragment=2)         25.74     24.81     16.46 
 H(Fragment=2)         26.69     25.93     16.78 
 O(Fragment=2)         26.79     15.71     24.75 
 H(Fragment=2)         26.44     15.7      25.64 
 H(Fragment=2)         26.08     16.09     24.22 
 O(Fragment=2)         14.29     14.56     25. 
 H(Fragment=2)         14.63     15.06     24.26 
 H(Fragment=2)         14.52     13.65     24.8 
 O(Fragment=2)         22.67     17.85     12.24 
 H(Fragment=2)         23.32     18.56     12.2 
 H(Fragment=2)         23.17     17.06     12. 
 O(Fragment=2)         23.25     26.73     15.89 
 H(Fragment=2)         23.33     27.35     16.61 
 H(Fragment=2)         23.92     27.       15.26 
 O(Fragment=2)         13.07     24.77     22.89 
 H(Fragment=2)         13.25     24.11     23.56 
 H(Fragment=2)         12.87     24.26     22.11 
 O(Fragment=2)         18.38     17.27     28.36 
 H(Fragment=2)         19.21     16.96     28. 
 H(Fragment=2)         17.71     16.76     27.9 
 O(Fragment=2)         24.29     14.61     14.28 
 H(Fragment=2)         24.04     15.46     13.91 
 H(Fragment=2)         25.24     14.68     14.42 
 O(Fragment=2)         25.08     19.98     12.15 
 H(Fragment=2)         25.18     19.97     13.1 
 H(Fragment=2)         24.31     20.52     11.99 
 O(Fragment=2)         19.66     28.43     15.81 
 H(Fragment=2)         19.29     27.55     15.86 
 H(Fragment=2)         20.       28.5      14.92 
 O(Fragment=2)         15.5      23.79     13.65 
 H(Fragment=2)         15.56     23.04     13.06 
 H(Fragment=2)         14.57     23.98     13.71 
 O(Fragment=2)         13.32     17.93     25.11 
 H(Fragment=2)         12.89     17.14     24.78 
 H(Fragment=2)         12.69     18.63     24.94 
 O(Fragment=2)         22.74     25.46     13.31 
 H(Fragment=2)         23.68     25.64     13.22 
 H(Fragment=2)         22.49     25.88     14.13 
 O(Fragment=2)         12.67     18.59     14.31 
 H(Fragment=2)         11.76     18.29     14.24 
 H(Fragment=2)         12.81     18.73     15.24 
 O(Fragment=2)         27.       21.25     26.46 
 H(Fragment=2)         27.46     22.08     26.36 
 H(Fragment=2)         26.59     21.09     25.61 
 O(Fragment=2)         27.79     16.08     20.9 
 H(Fragment=2)         27.38     15.24     20.69 
 H(Fragment=2)         28.09     16.42     20.06 
 O(Fragment=2)         15.9      28.56     22.39 
 H(Fragment=2)         16.36     27.8      22.03 
 H(Fragment=2)         16.43     28.84     23.13 
 O(Fragment=2)         15.22     17.17     27.43 
 H(Fragment=2)         14.73     17.61     26.73 
 H(Fragment=2)         15.67     16.45     27. 
 O(Fragment=2)         15.85     11.73     23.26 
 H(Fragment=2)         16.05     12.55     22.81 
 H(Fragment=2)         16.56     11.14     23.01 
 O(Fragment=2)         11.47     17.72     18.69 
 H(Fragment=2)         10.81     17.46     18.05 
 H(Fragment=2)         11.04     17.63     19.54 
 O(Fragment=2)         29.       18.48     16.95 
 H(Fragment=2)         28.11     18.4      16.61 
 H(Fragment=2)         29.51     18.78     16.2 
 O(Fragment=2)         14.04     12.41     20.68 
 H(Fragment=2)         14.54     12.86     20. 
 H(Fragment=2)         14.43     11.53     20.72 
 O(Fragment=2)         23.42     11.67     23.51 
 H(Fragment=2)         22.84     12.37     23.81 
 H(Fragment=2)         24.2      11.75     24.07 
 O(Fragment=2)         15.45     16.08     12.56 
 H(Fragment=2)         15.98     16.78     12.17 
 H(Fragment=2)         16.03     15.65     13.18 
 O(Fragment=2)         28.78     22.76     17.33 
 H(Fragment=2)         28.22     23.19     17.97 
 H(Fragment=2)         28.19     22.27     16.77 
 O(Fragment=2)         26.72     13.48     21.21 
 H(Fragment=2)         25.83     13.15     21.04 
 H(Fragment=2)         27.27     13.       20.6 
 O(Fragment=2)         18.3      28.56     24.61 
 H(Fragment=2)         18.93     29.27     24.69 
 H(Fragment=2)         18.84     27.77     24.56 
 O(Fragment=2)         17.65     10.69     21.74 
 H(Fragment=2)         18.14     11.15     21.06 
 H(Fragment=2)         17.36     9.88      21.33 
 O(Fragment=2)         21.77     28.66     24.16 
 H(Fragment=2)         22.53     28.83     24.71 
 H(Fragment=2)         21.42     27.83     24.49 
 O(Fragment=2)         25.14     16.17     27.47 
 H(Fragment=2)         25.14     17.01     27. 
 H(Fragment=2)         24.74     16.38     28.32 
 O(Fragment=2)         16.32     22.02     11.75 
 H(Fragment=2)         17.07     21.88     11.17 
 H(Fragment=2)         15.74     21.28     11.58 
 O(Fragment=2)         25.59     24.88     14.43 
 H(Fragment=2)         26.47     24.55     14.25 
 H(Fragment=2)         25.54     25.72     13.97 
 O(Fragment=2)         10.38     20.86     17.51 
 H(Fragment=2)         11.01     20.16     17.7 
 H(Fragment=2)         9.62      20.41     17.15 
 O(Fragment=2)         16.18     29.27     19.71 
 H(Fragment=2)         16.36     29.06     20.63 
 H(Fragment=2)         16.12     28.42     19.28 
 
 NAtoms=    385 NQM=      385 NQMF=       0 NMMI=      0 NMMIF=      0
                NMic=       0 NMicF=      0.
                    Isotopes and Nuclear Properties:
 (Nuclear quadrupole moments (NQMom) in fm**2, nuclear magnetic moments (NMagM)
  in nuclear magnetons)

  Atom         1           2           3           4           5           6           7           8           9          10
 IAtWgt=          79          16           1           1          16           1           1          16           1           1
 AtmWgt=  78.9183361  15.9949146   1.0078250   1.0078250  15.9949146   1.0078250   1.0078250  15.9949146   1.0078250   1.0078250
 NucSpn=           3           0           1           1           0           1           1           0           1           1
 AtZEff=   0.0000000   0.0000000   0.0000000   0.0000000   0.0000000   0.0000000   0.0000000   0.0000000   0.0000000   0.0000000
 NQMom=   31.3000000   0.0000000   0.0000000   0.0000000   0.0000000   0.0000000   0.0000000   0.0000000   0.0000000   0.0000000
 NMagM=    2.1063990   0.0000000   2.7928460   2.7928460   0.0000000   2.7928460   2.7928460   0.0000000   2.7928460   2.7928460
 AtZNuc=  35.0000000   8.0000000   1.0000000   1.0000000   8.0000000   1.0000000   1.0000000   8.0000000   1.0000000   1.0000000

  Atom        11          12          13          14          15          16          17          18          19          20
 IAtWgt=          16           1           1          16           1           1          16           1           1          16
 AtmWgt=  15.9949146   1.0078250   1.0078250  15.9949146   1.0078250   1.0078250  15.9949146   1.0078250   1.0078250  15.9949146
 NucSpn=           0           1           1           0           1           1           0           1           1           0
 AtZEff=   0.0000000   0.0000000   0.0000000   0.0000000   0.0000000   0.0000000   0.0000000   0.0000000   0.0000000   0.0000000
 NQMom=    0.0000000   0.0000000   0.0000000   0.0000000   0.0000000   0.0000000   0.0000000   0.0000000   0.0000000   0.0000000
 NMagM=    0.0000000   2.7928460   2.7928460   0.0000000   2.7928460   2.7928460   0.0000000   2.7928460   2.7928460   0.0000000
 AtZNuc=   8.0000000   1.0000000   1.0000000   8.0000000   1.0000000   1.0000000   8.0000000   1.0000000   1.0000000   8.0000000

  Atom        21          22          23          24          25          26          27          28          29          30
 IAtWgt=           1           1          16           1           1          16           1           1          16           1
 AtmWgt=   1.0078250   1.0078250  15.9949146   1.0078250   1.0078250  15.9949146   1.0078250   1.0078250  15.9949146   1.0078250
 NucSpn=           1           1           0           1           1           0           1           1           0           1
 AtZEff=   0.0000000   0.0000000   0.0000000   0.0000000   0.0000000   0.0000000   0.0000000   0.0000000   0.0000000   0.0000000
 NQMom=    0.0000000   0.0000000   0.0000000   0.0000000   0.0000000   0.0000000   0.0000000   0.0000000   0.0000000   0.0000000
 NMagM=    2.7928460   2.7928460   0.0000000   2.7928460   2.7928460   0.0000000   2.7928460   2.7928460   0.0000000   2.7928460
 AtZNuc=   1.0000000   1.0000000   8.0000000   1.0000000   1.0000000   8.0000000   1.0000000   1.0000000   8.0000000   1.0000000

  Atom        31          32          33          34          35          36          37          38          39          40
 IAtWgt=           1          16           1           1          16           1           1          16           1           1
 AtmWgt=   1.0078250  15.9949146   1.0078250   1.0078250  15.9949146   1.0078250   1.0078250  15.9949146   1.0078250   1.0078250
 NucSpn=           1           0           1           1           0           1           1           0           1           1
 AtZEff=   0.0000000   0.0000000   0.0000000   0.0000000   0.0000000   0.0000000   0.0000000   0.0000000   0.0000000   0.0000000
 NQMom=    0.0000000   0.0000000   0.0000000   0.0000000   0.0000000   0.0000000   0.0000000   0.0000000   0.0000000   0.0000000
 NMagM=    2.7928460   0.0000000   2.7928460   2.7928460   0.0000000   2.7928460   2.7928460   0.0000000   2.7928460   2.7928460
 AtZNuc=   1.0000000   8.0000000   1.0000000   1.0000000   8.0000000   1.0000000   1.0000000   8.0000000   1.0000000   1.0000000

  Atom        41          42          43          44          45          46          47          48          49          50
 IAtWgt=          16           1           1          16           1           1          16           1           1          16
 AtmWgt=  15.9949146   1.0078250   1.0078250  15.9949146   1.0078250   1.0078250  15.9949146   1.0078250   1.0078250  15.9949146
 NucSpn=           0           1           1           0           1           1           0           1           1           0
 AtZEff=   0.0000000   0.0000000   0.0000000   0.0000000   0.0000000   0.0000000   0.0000000   0.0000000   0.0000000   0.0000000
 NQMom=    0.0000000   0.0000000   0.0000000   0.0000000   0.0000000   0.0000000   0.0000000   0.0000000   0.0000000   0.0000000
 NMagM=    0.0000000   2.7928460   2.7928460   0.0000000   2.7928460   2.7928460   0.0000000   2.7928460   2.7928460   0.0000000
 AtZNuc=   8.0000000   1.0000000   1.0000000   8.0000000   1.0000000   1.0000000   8.0000000   1.0000000   1.0000000   8.0000000

  Atom        51          52          53          54          55          56          57          58          59          60
 IAtWgt=           1           1          16           1           1          16           1           1          16           1
 AtmWgt=   1.0078250   1.0078250  15.9949146   1.0078250   1.0078250  15.9949146   1.0078250   1.0078250  15.9949146   1.0078250
 NucSpn=           1           1           0           1           1           0           1           1           0           1
 AtZEff=   0.0000000   0.0000000   0.0000000   0.0000000   0.0000000   0.0000000   0.0000000   0.0000000   0.0000000   0.0000000
 NQMom=    0.0000000   0.0000000   0.0000000   0.0000000   0.0000000   0.0000000   0.0000000   0.0000000   0.0000000   0.0000000
 NMagM=    2.7928460   2.7928460   0.0000000   2.7928460   2.7928460   0.0000000   2.7928460   2.7928460   0.0000000   2.7928460
 AtZNuc=   1.0000000   1.0000000   8.0000000   1.0000000   1.0000000   8.0000000   1.0000000   1.0000000   8.0000000   1.0000000

  Atom        61          62          63          64          65          66          67          68          69          70
 IAtWgt=           1          16           1           1          16           1           1          16           1           1
 AtmWgt=   1.0078250  15.9949146   1.0078250   1.0078250  15.9949146   1.0078250   1.0078250  15.9949146   1.0078250   1.0078250
 NucSpn=           1           0           1           1           0           1           1           0           1           1
 AtZEff=   0.0000000   0.0000000   0.0000000   0.0000000   0.0000000   0.0000000   0.0000000   0.0000000   0.0000000   0.0000000
 NQMom=    0.0000000   0.0000000   0.0000000   0.0000000   0.0000000   0.0000000   0.0000000   0.0000000   0.0000000   0.0000000
 NMagM=    2.7928460   0.0000000   2.7928460   2.7928460   0.0000000   2.7928460   2.7928460   0.0000000   2.7928460   2.7928460
 AtZNuc=   1.0000000   8.0000000   1.0000000   1.0000000   8.0000000   1.0000000   1.0000000   8.0000000   1.0000000   1.0000000

  Atom        71          72          73          74          75          76          77          78          79          80
 IAtWgt=          16           1           1          16           1           1          16           1           1          16
 AtmWgt=  15.9949146   1.0078250   1.0078250  15.9949146   1.0078250   1.0078250  15.9949146   1.0078250   1.0078250  15.9949146
 NucSpn=           0           1           1           0           1           1           0           1           1           0
 AtZEff=   0.0000000   0.0000000   0.0000000   0.0000000   0.0000000   0.0000000   0.0000000   0.0000000   0.0000000   0.0000000
 NQMom=    0.0000000   0.0000000   0.0000000   0.0000000   0.0000000   0.0000000   0.0000000   0.0000000   0.0000000   0.0000000
 NMagM=    0.0000000   2.7928460   2.7928460   0.0000000   2.7928460   2.7928460   0.0000000   2.7928460   2.7928460   0.0000000
 AtZNuc=   8.0000000   1.0000000   1.0000000   8.0000000   1.0000000   1.0000000   8.0000000   1.0000000   1.0000000   8.0000000

  Atom        81          82          83          84          85          86          87          88          89          90
 IAtWgt=           1           1          16           1           1          16           1           1          16           1
 AtmWgt=   1.0078250   1.0078250  15.9949146   1.0078250   1.0078250  15.9949146   1.0078250   1.0078250  15.9949146   1.0078250
 NucSpn=           1           1           0           1           1           0           1           1           0           1
 AtZEff=   0.0000000   0.0000000   0.0000000   0.0000000   0.0000000   0.0000000   0.0000000   0.0000000   0.0000000   0.0000000
 NQMom=    0.0000000   0.0000000   0.0000000   0.0000000   0.0000000   0.0000000   0.0000000   0.0000000   0.0000000   0.0000000
 NMagM=    2.7928460   2.7928460   0.0000000   2.7928460   2.7928460   0.0000000   2.7928460   2.7928460   0.0000000   2.7928460
 AtZNuc=   1.0000000   1.0000000   8.0000000   1.0000000   1.0000000   8.0000000   1.0000000   1.0000000   8.0000000   1.0000000

  Atom        91          92          93          94          95          96          97          98          99         100
 IAtWgt=           1          16           1           1          16           1           1          16           1           1
 AtmWgt=   1.0078250  15.9949146   1.0078250   1.0078250  15.9949146   1.0078250   1.0078250  15.9949146   1.0078250   1.0078250
 NucSpn=           1           0           1           1           0           1           1           0           1           1
 AtZEff=   0.0000000   0.0000000   0.0000000   0.0000000   0.0000000   0.0000000   0.0000000   0.0000000   0.0000000   0.0000000
 NQMom=    0.0000000   0.0000000   0.0000000   0.0000000   0.0000000   0.0000000   0.0000000   0.0000000   0.0000000   0.0000000
 NMagM=    2.7928460   0.0000000   2.7928460   2.7928460   0.0000000   2.7928460   2.7928460   0.0000000   2.7928460   2.7928460
 AtZNuc=   1.0000000   8.0000000   1.0000000   1.0000000   8.0000000   1.0000000   1.0000000   8.0000000   1.0000000   1.0000000

  Atom       101         102         103         104         105         106         107         108         109         110
 IAtWgt=          16           1           1          16           1           1          16           1           1          16
 AtmWgt=  15.9949146   1.0078250   1.0078250  15.9949146   1.0078250   1.0078250  15.9949146   1.0078250   1.0078250  15.9949146
 NucSpn=           0           1           1           0           1           1           0           1           1           0
 AtZEff=   0.0000000   0.0000000   0.0000000   0.0000000   0.0000000   0.0000000   0.0000000   0.0000000   0.0000000   0.0000000
 NQMom=    0.0000000   0.0000000   0.0000000   0.0000000   0.0000000   0.0000000   0.0000000   0.0000000   0.0000000   0.0000000
 NMagM=    0.0000000   2.7928460   2.7928460   0.0000000   2.7928460   2.7928460   0.0000000   2.7928460   2.7928460   0.0000000
 AtZNuc=   8.0000000   1.0000000   1.0000000   8.0000000   1.0000000   1.0000000   8.0000000   1.0000000   1.0000000   8.0000000

  Atom       111         112         113         114         115         116         117         118         119         120
 IAtWgt=           1           1          16           1           1          16           1           1          16           1
 AtmWgt=   1.0078250   1.0078250  15.9949146   1.0078250   1.0078250  15.9949146   1.0078250   1.0078250  15.9949146   1.0078250
 NucSpn=           1           1           0           1           1           0           1           1           0           1
 AtZEff=   0.0000000   0.0000000   0.0000000   0.0000000   0.0000000   0.0000000   0.0000000   0.0000000   0.0000000   0.0000000
 NQMom=    0.0000000   0.0000000   0.0000000   0.0000000   0.0000000   0.0000000   0.0000000   0.0000000   0.0000000   0.0000000
 NMagM=    2.7928460   2.7928460   0.0000000   2.7928460   2.7928460   0.0000000   2.7928460   2.7928460   0.0000000   2.7928460
 AtZNuc=   1.0000000   1.0000000   8.0000000   1.0000000   1.0000000   8.0000000   1.0000000   1.0000000   8.0000000   1.0000000

  Atom       121         122         123         124         125         126         127         128         129         130
 IAtWgt=           1          16           1           1          16           1           1          16           1           1
 AtmWgt=   1.0078250  15.9949146   1.0078250   1.0078250  15.9949146   1.0078250   1.0078250  15.9949146   1.0078250   1.0078250
 NucSpn=           1           0           1           1           0           1           1           0           1           1
 AtZEff=   0.0000000   0.0000000   0.0000000   0.0000000   0.0000000   0.0000000   0.0000000   0.0000000   0.0000000   0.0000000
 NQMom=    0.0000000   0.0000000   0.0000000   0.0000000   0.0000000   0.0000000   0.0000000   0.0000000   0.0000000   0.0000000
 NMagM=    2.7928460   0.0000000   2.7928460   2.7928460   0.0000000   2.7928460   2.7928460   0.0000000   2.7928460   2.7928460
 AtZNuc=   1.0000000   8.0000000   1.0000000   1.0000000   8.0000000   1.0000000   1.0000000   8.0000000   1.0000000   1.0000000

  Atom       131         132         133         134         135         136         137         138         139         140
 IAtWgt=          16           1           1          16           1           1          16           1           1          16
 AtmWgt=  15.9949146   1.0078250   1.0078250  15.9949146   1.0078250   1.0078250  15.9949146   1.0078250   1.0078250  15.9949146
 NucSpn=           0           1           1           0           1           1           0           1           1           0
 AtZEff=   0.0000000   0.0000000   0.0000000   0.0000000   0.0000000   0.0000000   0.0000000   0.0000000   0.0000000   0.0000000
 NQMom=    0.0000000   0.0000000   0.0000000   0.0000000   0.0000000   0.0000000   0.0000000   0.0000000   0.0000000   0.0000000
 NMagM=    0.0000000   2.7928460   2.7928460   0.0000000   2.7928460   2.7928460   0.0000000   2.7928460   2.7928460   0.0000000
 AtZNuc=   8.0000000   1.0000000   1.0000000   8.0000000   1.0000000   1.0000000   8.0000000   1.0000000   1.0000000   8.0000000

  Atom       141         142         143         144         145         146         147         148         149         150
 IAtWgt=           1           1          16           1           1          16           1           1          16           1
 AtmWgt=   1.0078250   1.0078250  15.9949146   1.0078250   1.0078250  15.9949146   1.0078250   1.0078250  15.9949146   1.0078250
 NucSpn=           1           1           0           1           1           0           1           1           0           1
 AtZEff=   0.0000000   0.0000000   0.0000000   0.0000000   0.0000000   0.0000000   0.0000000   0.0000000   0.0000000   0.0000000
 NQMom=    0.0000000   0.0000000   0.0000000   0.0000000   0.0000000   0.0000000   0.0000000   0.0000000   0.0000000   0.0000000
 NMagM=    2.7928460   2.7928460   0.0000000   2.7928460   2.7928460   0.0000000   2.7928460   2.7928460   0.0000000   2.7928460
 AtZNuc=   1.0000000   1.0000000   8.0000000   1.0000000   1.0000000   8.0000000   1.0000000   1.0000000   8.0000000   1.0000000

  Atom       151         152         153         154         155         156         157         158         159         160
 IAtWgt=           1          16           1           1          16           1           1          16           1           1
 AtmWgt=   1.0078250  15.9949146   1.0078250   1.0078250  15.9949146   1.0078250   1.0078250  15.9949146   1.0078250   1.0078250
 NucSpn=           1           0           1           1           0           1           1           0           1           1
 AtZEff=   0.0000000   0.0000000   0.0000000   0.0000000   0.0000000   0.0000000   0.0000000   0.0000000   0.0000000   0.0000000
 NQMom=    0.0000000   0.0000000   0.0000000   0.0000000   0.0000000   0.0000000   0.0000000   0.0000000   0.0000000   0.0000000
 NMagM=    2.7928460   0.0000000   2.7928460   2.7928460   0.0000000   2.7928460   2.7928460   0.0000000   2.7928460   2.7928460
 AtZNuc=   1.0000000   8.0000000   1.0000000   1.0000000   8.0000000   1.0000000   1.0000000   8.0000000   1.0000000   1.0000000

  Atom       161         162         163         164         165         166         167         168         169         170
 IAtWgt=          16           1           1          16           1           1          16           1           1          16
 AtmWgt=  15.9949146   1.0078250   1.0078250  15.9949146   1.0078250   1.0078250  15.9949146   1.0078250   1.0078250  15.9949146
 NucSpn=           0           1           1           0           1           1           0           1           1           0
 AtZEff=   0.0000000   0.0000000   0.0000000   0.0000000   0.0000000   0.0000000   0.0000000   0.0000000   0.0000000   0.0000000
 NQMom=    0.0000000   0.0000000   0.0000000   0.0000000   0.0000000   0.0000000   0.0000000   0.0000000   0.0000000   0.0000000
 NMagM=    0.0000000   2.7928460   2.7928460   0.0000000   2.7928460   2.7928460   0.0000000   2.7928460   2.7928460   0.0000000
 AtZNuc=   8.0000000   1.0000000   1.0000000   8.0000000   1.0000000   1.0000000   8.0000000   1.0000000   1.0000000   8.0000000

  Atom       171         172         173         174         175         176         177         178         179         180
 IAtWgt=           1           1          16           1           1          16           1           1          16           1
 AtmWgt=   1.0078250   1.0078250  15.9949146   1.0078250   1.0078250  15.9949146   1.0078250   1.0078250  15.9949146   1.0078250
 NucSpn=           1           1           0           1           1           0           1           1           0           1
 AtZEff=   0.0000000   0.0000000   0.0000000   0.0000000   0.0000000   0.0000000   0.0000000   0.0000000   0.0000000   0.0000000
 NQMom=    0.0000000   0.0000000   0.0000000   0.0000000   0.0000000   0.0000000   0.0000000   0.0000000   0.0000000   0.0000000
 NMagM=    2.7928460   2.7928460   0.0000000   2.7928460   2.7928460   0.0000000   2.7928460   2.7928460   0.0000000   2.7928460
 AtZNuc=   1.0000000   1.0000000   8.0000000   1.0000000   1.0000000   8.0000000   1.0000000   1.0000000   8.0000000   1.0000000

  Atom       181         182         183         184         185         186         187         188         189         190
 IAtWgt=           1          16           1           1          16           1           1          16           1           1
 AtmWgt=   1.0078250  15.9949146   1.0078250   1.0078250  15.9949146   1.0078250   1.0078250  15.9949146   1.0078250   1.0078250
 NucSpn=           1           0           1           1           0           1           1           0           1           1
 AtZEff=   0.0000000   0.0000000   0.0000000   0.0000000   0.0000000   0.0000000   0.0000000   0.0000000   0.0000000   0.0000000
 NQMom=    0.0000000   0.0000000   0.0000000   0.0000000   0.0000000   0.0000000   0.0000000   0.0000000   0.0000000   0.0000000
 NMagM=    2.7928460   0.0000000   2.7928460   2.7928460   0.0000000   2.7928460   2.7928460   0.0000000   2.7928460   2.7928460
 AtZNuc=   1.0000000   8.0000000   1.0000000   1.0000000   8.0000000   1.0000000   1.0000000   8.0000000   1.0000000   1.0000000

  Atom       191         192         193         194         195         196         197         198         199         200
 IAtWgt=          16           1           1          16           1           1          16           1           1          16
 AtmWgt=  15.9949146   1.0078250   1.0078250  15.9949146   1.0078250   1.0078250  15.9949146   1.0078250   1.0078250  15.9949146
 NucSpn=           0           1           1           0           1           1           0           1           1           0
 AtZEff=   0.0000000   0.0000000   0.0000000   0.0000000   0.0000000   0.0000000   0.0000000   0.0000000   0.0000000   0.0000000
 NQMom=    0.0000000   0.0000000   0.0000000   0.0000000   0.0000000   0.0000000   0.0000000   0.0000000   0.0000000   0.0000000
 NMagM=    0.0000000   2.7928460   2.7928460   0.0000000   2.7928460   2.7928460   0.0000000   2.7928460   2.7928460   0.0000000
 AtZNuc=   8.0000000   1.0000000   1.0000000   8.0000000   1.0000000   1.0000000   8.0000000   1.0000000   1.0000000   8.0000000

  Atom       201         202         203         204         205         206         207         208         209         210
 IAtWgt=           1           1          16           1           1          16           1           1          16           1
 AtmWgt=   1.0078250   1.0078250  15.9949146   1.0078250   1.0078250  15.9949146   1.0078250   1.0078250  15.9949146   1.0078250
 NucSpn=           1           1           0           1           1           0           1           1           0           1
 AtZEff=   0.0000000   0.0000000   0.0000000   0.0000000   0.0000000   0.0000000   0.0000000   0.0000000   0.0000000   0.0000000
 NQMom=    0.0000000   0.0000000   0.0000000   0.0000000   0.0000000   0.0000000   0.0000000   0.0000000   0.0000000   0.0000000
 NMagM=    2.7928460   2.7928460   0.0000000   2.7928460   2.7928460   0.0000000   2.7928460   2.7928460   0.0000000   2.7928460
 AtZNuc=   1.0000000   1.0000000   8.0000000   1.0000000   1.0000000   8.0000000   1.0000000   1.0000000   8.0000000   1.0000000

  Atom       211         212         213         214         215         216         217         218         219         220
 IAtWgt=           1          16           1           1          16           1           1          16           1           1
 AtmWgt=   1.0078250  15.9949146   1.0078250   1.0078250  15.9949146   1.0078250   1.0078250  15.9949146   1.0078250   1.0078250
 NucSpn=           1           0           1           1           0           1           1           0           1           1
 AtZEff=   0.0000000   0.0000000   0.0000000   0.0000000   0.0000000   0.0000000   0.0000000   0.0000000   0.0000000   0.0000000
 NQMom=    0.0000000   0.0000000   0.0000000   0.0000000   0.0000000   0.0000000   0.0000000   0.0000000   0.0000000   0.0000000
 NMagM=    2.7928460   0.0000000   2.7928460   2.7928460   0.0000000   2.7928460   2.7928460   0.0000000   2.7928460   2.7928460
 AtZNuc=   1.0000000   8.0000000   1.0000000   1.0000000   8.0000000   1.0000000   1.0000000   8.0000000   1.0000000   1.0000000

  Atom       221         222         223         224         225         226         227         228         229         230
 IAtWgt=          16           1           1          16           1           1          16           1           1          16
 AtmWgt=  15.9949146   1.0078250   1.0078250  15.9949146   1.0078250   1.0078250  15.9949146   1.0078250   1.0078250  15.9949146
 NucSpn=           0           1           1           0           1           1           0           1           1           0
 AtZEff=   0.0000000   0.0000000   0.0000000   0.0000000   0.0000000   0.0000000   0.0000000   0.0000000   0.0000000   0.0000000
 NQMom=    0.0000000   0.0000000   0.0000000   0.0000000   0.0000000   0.0000000   0.0000000   0.0000000   0.0000000   0.0000000
 NMagM=    0.0000000   2.7928460   2.7928460   0.0000000   2.7928460   2.7928460   0.0000000   2.7928460   2.7928460   0.0000000
 AtZNuc=   8.0000000   1.0000000   1.0000000   8.0000000   1.0000000   1.0000000   8.0000000   1.0000000   1.0000000   8.0000000

  Atom       231         232         233         234         235         236         237         238         239         240
 IAtWgt=           1           1          16           1           1          16           1           1          16           1
 AtmWgt=   1.0078250   1.0078250  15.9949146   1.0078250   1.0078250  15.9949146   1.0078250   1.0078250  15.9949146   1.0078250
 NucSpn=           1           1           0           1           1           0           1           1           0           1
 AtZEff=   0.0000000   0.0000000   0.0000000   0.0000000   0.0000000   0.0000000   0.0000000   0.0000000   0.0000000   0.0000000
 NQMom=    0.0000000   0.0000000   0.0000000   0.0000000   0.0000000   0.0000000   0.0000000   0.0000000   0.0000000   0.0000000
 NMagM=    2.7928460   2.7928460   0.0000000   2.7928460   2.7928460   0.0000000   2.7928460   2.7928460   0.0000000   2.7928460
 AtZNuc=   1.0000000   1.0000000   8.0000000   1.0000000   1.0000000   8.0000000   1.0000000   1.0000000   8.0000000   1.0000000

  Atom       241         242         243         244         245         246         247         248         249         250
 IAtWgt=           1          16           1           1          16           1           1          16           1           1
 AtmWgt=   1.0078250  15.9949146   1.0078250   1.0078250  15.9949146   1.0078250   1.0078250  15.9949146   1.0078250   1.0078250
 NucSpn=           1           0           1           1           0           1           1           0           1           1
 AtZEff=   0.0000000   0.0000000   0.0000000   0.0000000   0.0000000   0.0000000   0.0000000   0.0000000   0.0000000   0.0000000
 NQMom=    0.0000000   0.0000000   0.0000000   0.0000000   0.0000000   0.0000000   0.0000000   0.0000000   0.0000000   0.0000000
 NMagM=    2.7928460   0.0000000   2.7928460   2.7928460   0.0000000   2.7928460   2.7928460   0.0000000   2.7928460   2.7928460
 AtZNuc=   1.0000000   8.0000000   1.0000000   1.0000000   8.0000000   1.0000000   1.0000000   8.0000000   1.0000000   1.0000000

  Atom       251         252         253         254         255         256         257         258         259         260
 IAtWgt=          16           1           1          16           1           1          16           1           1          16
 AtmWgt=  15.9949146   1.0078250   1.0078250  15.9949146   1.0078250   1.0078250  15.9949146   1.0078250   1.0078250  15.9949146
 NucSpn=           0           1           1           0           1           1           0           1           1           0
 AtZEff=   0.0000000   0.0000000   0.0000000   0.0000000   0.0000000   0.0000000   0.0000000   0.0000000   0.0000000   0.0000000
 NQMom=    0.0000000   0.0000000   0.0000000   0.0000000   0.0000000   0.0000000   0.0000000   0.0000000   0.0000000   0.0000000
 NMagM=    0.0000000   2.7928460   2.7928460   0.0000000   2.7928460   2.7928460   0.0000000   2.7928460   2.7928460   0.0000000
 AtZNuc=   8.0000000   1.0000000   1.0000000   8.0000000   1.0000000   1.0000000   8.0000000   1.0000000   1.0000000   8.0000000

  Atom       261         262         263         264         265         266         267         268         269         270
 IAtWgt=           1           1          16           1           1          16           1           1          16           1
 AtmWgt=   1.0078250   1.0078250  15.9949146   1.0078250   1.0078250  15.9949146   1.0078250   1.0078250  15.9949146   1.0078250
 NucSpn=           1           1           0           1           1           0           1           1           0           1
 AtZEff=   0.0000000   0.0000000   0.0000000   0.0000000   0.0000000   0.0000000   0.0000000   0.0000000   0.0000000   0.0000000
 NQMom=    0.0000000   0.0000000   0.0000000   0.0000000   0.0000000   0.0000000   0.0000000   0.0000000   0.0000000   0.0000000
 NMagM=    2.7928460   2.7928460   0.0000000   2.7928460   2.7928460   0.0000000   2.7928460   2.7928460   0.0000000   2.7928460
 AtZNuc=   1.0000000   1.0000000   8.0000000   1.0000000   1.0000000   8.0000000   1.0000000   1.0000000   8.0000000   1.0000000

  Atom       271         272         273         274         275         276         277         278         279         280
 IAtWgt=           1          16           1           1          16           1           1          16           1           1
 AtmWgt=   1.0078250  15.9949146   1.0078250   1.0078250  15.9949146   1.0078250   1.0078250  15.9949146   1.0078250   1.0078250
 NucSpn=           1           0           1           1           0           1           1           0           1           1
 AtZEff=   0.0000000   0.0000000   0.0000000   0.0000000   0.0000000   0.0000000   0.0000000   0.0000000   0.0000000   0.0000000
 NQMom=    0.0000000   0.0000000   0.0000000   0.0000000   0.0000000   0.0000000   0.0000000   0.0000000   0.0000000   0.0000000
 NMagM=    2.7928460   0.0000000   2.7928460   2.7928460   0.0000000   2.7928460   2.7928460   0.0000000   2.7928460   2.7928460
 AtZNuc=   1.0000000   8.0000000   1.0000000   1.0000000   8.0000000   1.0000000   1.0000000   8.0000000   1.0000000   1.0000000

  Atom       281         282         283         284         285         286         287         288         289         290
 IAtWgt=          16           1           1          16           1           1          16           1           1          16
 AtmWgt=  15.9949146   1.0078250   1.0078250  15.9949146   1.0078250   1.0078250  15.9949146   1.0078250   1.0078250  15.9949146
 NucSpn=           0           1           1           0           1           1           0           1           1           0
 AtZEff=   0.0000000   0.0000000   0.0000000   0.0000000   0.0000000   0.0000000   0.0000000   0.0000000   0.0000000   0.0000000
 NQMom=    0.0000000   0.0000000   0.0000000   0.0000000   0.0000000   0.0000000   0.0000000   0.0000000   0.0000000   0.0000000
 NMagM=    0.0000000   2.7928460   2.7928460   0.0000000   2.7928460   2.7928460   0.0000000   2.7928460   2.7928460   0.0000000
 AtZNuc=   8.0000000   1.0000000   1.0000000   8.0000000   1.0000000   1.0000000   8.0000000   1.0000000   1.0000000   8.0000000

  Atom       291         292         293         294         295         296         297         298         299         300
 IAtWgt=           1           1          16           1           1          16           1           1          16           1
 AtmWgt=   1.0078250   1.0078250  15.9949146   1.0078250   1.0078250  15.9949146   1.0078250   1.0078250  15.9949146   1.0078250
 NucSpn=           1           1           0           1           1           0           1           1           0           1
 AtZEff=   0.0000000   0.0000000   0.0000000   0.0000000   0.0000000   0.0000000   0.0000000   0.0000000   0.0000000   0.0000000
 NQMom=    0.0000000   0.0000000   0.0000000   0.0000000   0.0000000   0.0000000   0.0000000   0.0000000   0.0000000   0.0000000
 NMagM=    2.7928460   2.7928460   0.0000000   2.7928460   2.7928460   0.0000000   2.7928460   2.7928460   0.0000000   2.7928460
 AtZNuc=   1.0000000   1.0000000   8.0000000   1.0000000   1.0000000   8.0000000   1.0000000   1.0000000   8.0000000   1.0000000

  Atom       301         302         303         304         305         306         307         308         309         310
 IAtWgt=           1          16           1           1          16           1           1          16           1           1
 AtmWgt=   1.0078250  15.9949146   1.0078250   1.0078250  15.9949146   1.0078250   1.0078250  15.9949146   1.0078250   1.0078250
 NucSpn=           1           0           1           1           0           1           1           0           1           1
 AtZEff=   0.0000000   0.0000000   0.0000000   0.0000000   0.0000000   0.0000000   0.0000000   0.0000000   0.0000000   0.0000000
 NQMom=    0.0000000   0.0000000   0.0000000   0.0000000   0.0000000   0.0000000   0.0000000   0.0000000   0.0000000   0.0000000
 NMagM=    2.7928460   0.0000000   2.7928460   2.7928460   0.0000000   2.7928460   2.7928460   0.0000000   2.7928460   2.7928460
 AtZNuc=   1.0000000   8.0000000   1.0000000   1.0000000   8.0000000   1.0000000   1.0000000   8.0000000   1.0000000   1.0000000

  Atom       311         312         313         314         315         316         317         318         319         320
 IAtWgt=          16           1           1          16           1           1          16           1           1          16
 AtmWgt=  15.9949146   1.0078250   1.0078250  15.9949146   1.0078250   1.0078250  15.9949146   1.0078250   1.0078250  15.9949146
 NucSpn=           0           1           1           0           1           1           0           1           1           0
 AtZEff=   0.0000000   0.0000000   0.0000000   0.0000000   0.0000000   0.0000000   0.0000000   0.0000000   0.0000000   0.0000000
 NQMom=    0.0000000   0.0000000   0.0000000   0.0000000   0.0000000   0.0000000   0.0000000   0.0000000   0.0000000   0.0000000
 NMagM=    0.0000000   2.7928460   2.7928460   0.0000000   2.7928460   2.7928460   0.0000000   2.7928460   2.7928460   0.0000000
 AtZNuc=   8.0000000   1.0000000   1.0000000   8.0000000   1.0000000   1.0000000   8.0000000   1.0000000   1.0000000   8.0000000

  Atom       321         322         323         324         325         326         327         328         329         330
 IAtWgt=           1           1          16           1           1          16           1           1          16           1
 AtmWgt=   1.0078250   1.0078250  15.9949146   1.0078250   1.0078250  15.9949146   1.0078250   1.0078250  15.9949146   1.0078250
 NucSpn=           1           1           0           1           1           0           1           1           0           1
 AtZEff=   0.0000000   0.0000000   0.0000000   0.0000000   0.0000000   0.0000000   0.0000000   0.0000000   0.0000000   0.0000000
 NQMom=    0.0000000   0.0000000   0.0000000   0.0000000   0.0000000   0.0000000   0.0000000   0.0000000   0.0000000   0.0000000
 NMagM=    2.7928460   2.7928460   0.0000000   2.7928460   2.7928460   0.0000000   2.7928460   2.7928460   0.0000000   2.7928460
 AtZNuc=   1.0000000   1.0000000   8.0000000   1.0000000   1.0000000   8.0000000   1.0000000   1.0000000   8.0000000   1.0000000

  Atom       331         332         333         334         335         336         337         338         339         340
 IAtWgt=           1          16           1           1          16           1           1          16           1           1
 AtmWgt=   1.0078250  15.9949146   1.0078250   1.0078250  15.9949146   1.0078250   1.0078250  15.9949146   1.0078250   1.0078250
 NucSpn=           1           0           1           1           0           1           1           0           1           1
 AtZEff=   0.0000000   0.0000000   0.0000000   0.0000000   0.0000000   0.0000000   0.0000000   0.0000000   0.0000000   0.0000000
 NQMom=    0.0000000   0.0000000   0.0000000   0.0000000   0.0000000   0.0000000   0.0000000   0.0000000   0.0000000   0.0000000
 NMagM=    2.7928460   0.0000000   2.7928460   2.7928460   0.0000000   2.7928460   2.7928460   0.0000000   2.7928460   2.7928460
 AtZNuc=   1.0000000   8.0000000   1.0000000   1.0000000   8.0000000   1.0000000   1.0000000   8.0000000   1.0000000   1.0000000

  Atom       341         342         343         344         345         346         347         348         349         350
 IAtWgt=          16           1           1          16           1           1          16           1           1          16
 AtmWgt=  15.9949146   1.0078250   1.0078250  15.9949146   1.0078250   1.0078250  15.9949146   1.0078250   1.0078250  15.9949146
 NucSpn=           0           1           1           0           1           1           0           1           1           0
 AtZEff=   0.0000000   0.0000000   0.0000000   0.0000000   0.0000000   0.0000000   0.0000000   0.0000000   0.0000000   0.0000000
 NQMom=    0.0000000   0.0000000   0.0000000   0.0000000   0.0000000   0.0000000   0.0000000   0.0000000   0.0000000   0.0000000
 NMagM=    0.0000000   2.7928460   2.7928460   0.0000000   2.7928460   2.7928460   0.0000000   2.7928460   2.7928460   0.0000000
 AtZNuc=   8.0000000   1.0000000   1.0000000   8.0000000   1.0000000   1.0000000   8.0000000   1.0000000   1.0000000   8.0000000

  Atom       351         352         353         354         355         356         357         358         359         360
 IAtWgt=           1           1          16           1           1          16           1           1          16           1
 AtmWgt=   1.0078250   1.0078250  15.9949146   1.0078250   1.0078250  15.9949146   1.0078250   1.0078250  15.9949146   1.0078250
 NucSpn=           1           1           0           1           1           0           1           1           0           1
 AtZEff=   0.0000000   0.0000000   0.0000000   0.0000000   0.0000000   0.0000000   0.0000000   0.0000000   0.0000000   0.0000000
 NQMom=    0.0000000   0.0000000   0.0000000   0.0000000   0.0000000   0.0000000   0.0000000   0.0000000   0.0000000   0.0000000
 NMagM=    2.7928460   2.7928460   0.0000000   2.7928460   2.7928460   0.0000000   2.7928460   2.7928460   0.0000000   2.7928460
 AtZNuc=   1.0000000   1.0000000   8.0000000   1.0000000   1.0000000   8.0000000   1.0000000   1.0000000   8.0000000   1.0000000

  Atom       361         362         363         364         365         366         367         368         369         370
 IAtWgt=           1          16           1           1          16           1           1          16           1           1
 AtmWgt=   1.0078250  15.9949146   1.0078250   1.0078250  15.9949146   1.0078250   1.0078250  15.9949146   1.0078250   1.0078250
 NucSpn=           1           0           1           1           0           1           1           0           1           1
 AtZEff=   0.0000000   0.0000000   0.0000000   0.0000000   0.0000000   0.0000000   0.0000000   0.0000000   0.0000000   0.0000000
 NQMom=    0.0000000   0.0000000   0.0000000   0.0000000   0.0000000   0.0000000   0.0000000   0.0000000   0.0000000   0.0000000
 NMagM=    2.7928460   0.0000000   2.7928460   2.7928460   0.0000000   2.7928460   2.7928460   0.0000000   2.7928460   2.7928460
 AtZNuc=   1.0000000   8.0000000   1.0000000   1.0000000   8.0000000   1.0000000   1.0000000   8.0000000   1.0000000   1.0000000

  Atom       371         372         373         374         375         376         377         378         379         380
 IAtWgt=          16           1           1          16           1           1          16           1           1          16
 AtmWgt=  15.9949146   1.0078250   1.0078250  15.9949146   1.0078250   1.0078250  15.9949146   1.0078250   1.0078250  15.9949146
 NucSpn=           0           1           1           0           1           1           0           1           1           0
 AtZEff=   0.0000000   0.0000000   0.0000000   0.0000000   0.0000000   0.0000000   0.0000000   0.0000000   0.0000000   0.0000000
 NQMom=    0.0000000   0.0000000   0.0000000   0.0000000   0.0000000   0.0000000   0.0000000   0.0000000   0.0000000   0.0000000
 NMagM=    0.0000000   2.7928460   2.7928460   0.0000000   2.7928460   2.7928460   0.0000000   2.7928460   2.7928460   0.0000000
 AtZNuc=   8.0000000   1.0000000   1.0000000   8.0000000   1.0000000   1.0000000   8.0000000   1.0000000   1.0000000   8.0000000

  Atom       381         382         383         384         385
 IAtWgt=           1           1          16           1           1
 AtmWgt=   1.0078250   1.0078250  15.9949146   1.0078250   1.0078250
 NucSpn=           1           1           0           1           1
 AtZEff=   0.0000000   0.0000000   0.0000000   0.0000000   0.0000000
 NQMom=    0.0000000   0.0000000   0.0000000   0.0000000   0.0000000
 NMagM=    2.7928460   2.7928460   0.0000000   2.7928460   2.7928460
 AtZNuc=   1.0000000   1.0000000   8.0000000   1.0000000   1.0000000
 Leave Link  101 at Tue May  8 06:59:54 2018, MaxMem= 14763950080 cpu:       129.8
 (Enter /cm/shared/gaussian/g09.e01/intel64-sandybridge/g09/l103.exe)

 GradGradGradGradGradGradGradGradGradGradGradGradGradGradGradGradGradGrad
 Berny optimization.
 Initialization pass.
 Trust Radius=3.00D-01 FncErr=1.00D-07 GrdErr=1.00D-07
 Number of steps in this run=      2 maximum allowed number of steps=      2.
 GradGradGradGradGradGradGradGradGradGradGradGradGradGradGradGradGradGrad

 Leave Link  103 at Tue May  8 06:59:54 2018, MaxMem= 14763950080 cpu:         3.7
 (Enter /cm/shared/gaussian/g09.e01/intel64-sandybridge/g09/l202.exe)
 Symmetry turned off by external request.
 Stoichiometry    BrH256O128(1-)
 Framework group  C1[X(BrH256O128)]
 Deg. of freedom  1149
 Full point group                 C1      NOp   1
                          Input orientation:                          
 ---------------------------------------------------------------------
 Center     Atomic      Atomic             Coordinates (Angstroms)
 Number     Number       Type             X           Y           Z
 ---------------------------------------------------------------------
      1         35           0       20.000000   20.000000   20.000000
      2          8           0       18.560000   19.120000   17.550000
      3          1           0       18.940000   19.730000   16.910000
      4          1           0       18.910000   19.410000   18.390000
      5          8           0       22.210000   17.710000   19.750000
      6          1           0       21.590000   18.400000   19.990000
      7          1           0       21.690000   17.090000   19.250000
      8          8           0       19.460000   18.370000   22.770000
      9          1           0       19.850000   18.750000   23.560000
     10          1           0       19.760000   18.940000   22.060000
     11          8           0       22.890000   21.310000   20.730000
     12          1           0       23.370000   21.030000   19.950000
     13          1           0       22.150000   20.700000   20.790000
     14          8           0       21.160000   21.890000   17.350000
     15          1           0       21.360000   22.700000   17.820000
     16          1           0       20.800000   21.310000   18.010000
     17          8           0       19.880000   23.310000   20.970000
     18          1           0       19.140000   23.670000   20.470000
     19          1           0       19.540000   22.500000   21.340000
     20          8           0       16.480000   20.240000   20.540000
     21          1           0       17.090000   19.720000   20.010000
     22          1           0       16.840000   21.120000   20.520000
     23          8           0       18.990000   21.490000   23.000000
     24          1           0       18.650000   20.700000   22.580000
     25          1           0       19.850000   21.230000   23.320000
     26          8           0       17.690000   17.040000   20.430000
     27          1           0       18.320000   17.220000   21.140000
     28          1           0       18.060000   17.480000   19.670000
     29          8           0       21.800000   21.120000   23.150000
     30          1           0       22.320000   21.020000   22.360000
     31          1           0       21.750000   22.070000   23.280000
     32          8           0       22.190000   19.630000   16.300000
     33          1           0       21.740000   20.420000   16.600000
     34          1           0       23.000000   19.950000   15.910000
     35          8           0       24.120000   19.870000   18.840000
     36          1           0       23.650000   19.330000   18.200000
     37          1           0       24.430000   20.620000   18.330000
     38          8           0       22.710000   23.920000   20.020000
     39          1           0       22.780000   23.070000   20.460000
     40          1           0       23.120000   24.540000   20.620000
     41          8           0       16.020000   20.340000   16.650000
     42          1           0       16.180000   21.280000   16.620000
     43          1           0       16.840000   19.970000   17.000000
     44          8           0       21.510000   24.040000   22.960000
     45          1           0       20.900000   23.810000   22.260000
     46          1           0       22.050000   24.740000   22.600000
     47          8           0       18.420000   17.360000   15.450000
     48          1           0       17.470000   17.490000   15.440000
     49          1           0       18.710000   17.790000   16.260000
     50          8           0       20.500000   15.650000   18.740000
     51          1           0       20.450000   15.360000   19.650000
     52          1           0       19.740000   15.260000   18.320000
     53          8           0       20.610000   15.580000   21.440000
     54          1           0       21.320000   15.490000   22.080000
     55          1           0       19.870000   15.120000   21.850000
     56          8           0       24.860000   17.180000   19.710000
     57          1           0       23.960000   17.430000   19.900000
     58          1           0       25.200000   17.880000   19.160000
     59          8           0       17.820000   17.000000   24.340000
     60          1           0       17.380000   17.780000   24.690000
     61          1           0       18.430000   17.340000   23.690000
     62          8           0       18.570000   24.120000   23.660000
     63          1           0       18.770000   23.230000   23.370000
     64          1           0       18.610000   24.640000   22.860000
     65          8           0       25.330000   20.790000   21.950000
     66          1           0       25.120000   21.670000   22.270000
     67          1           0       24.750000   20.660000   21.190000
     68          8           0       15.010000   17.380000   19.970000
     69          1           0       15.910000   17.100000   20.120000
     70          1           0       14.780000   17.040000   19.110000
     71          8           0       17.170000   24.180000   21.080000
     72          1           0       16.630000   23.900000   20.340000
     73          1           0       16.770000   23.770000   21.840000
     74          8           0       19.950000   23.510000   15.470000
     75          1           0       19.760000   22.840000   14.820000
     76          1           0       20.710000   23.180000   15.950000
     77          8           0       23.260000   19.710000   25.080000
     78          1           0       22.640000   20.130000   24.490000
     79          1           0       23.710000   20.430000   25.520000
     80          8           0       14.270000   20.000000   22.050000
     81          1           0       14.950000   20.040000   21.370000
     82          1           0       13.620000   19.390000   21.710000
     83          8           0       22.380000   16.050000   16.830000
     84          1           0       21.720000   15.760000   17.450000
     85          1           0       21.930000   16.680000   16.270000
     86          8           0       23.200000   14.810000   19.860000
     87          1           0       22.960000   15.670000   20.220000
     88          1           0       23.580000   15.010000   19.000000
     89          8           0       13.870000   20.810000   18.880000
     90          1           0       14.770000   20.550000   18.680000
     91          1           0       13.820000   21.720000   18.590000
     92          8           0       20.060000   19.190000   25.380000
     93          1           0       20.060000   18.450000   25.990000
     94          1           0       19.580000   19.880000   25.840000
     95          8           0       15.630000   23.660000   18.540000
     96          1           0       16.440000   23.690000   18.020000
     97          1           0       14.960000   23.370000   17.920000
     98          8           0       18.440000   20.340000   14.730000
     99          1           0       18.110000   19.440000   14.710000
    100          1           0       17.690000   20.870000   14.990000
    101          8           0       17.860000   15.420000   17.580000
    102          1           0       18.190000   15.510000   16.690000
    103          1           0       17.000000   15.830000   17.570000
    104          8           0       16.090000   22.530000   23.630000
    105          1           0       16.480000   21.740000   24.010000
    106          1           0       16.350000   23.230000   24.230000
    107          8           0       18.800000   25.330000   17.380000
    108          1           0       19.310000   25.460000   18.170000
    109          1           0       19.260000   24.640000   16.910000
    110          8           0       15.790000   18.710000   24.270000
    111          1           0       14.970000   18.460000   24.690000
    112          1           0       15.540000   19.040000   23.410000
    113          8           0       24.570000   22.180000   17.360000
    114          1           0       24.050000   22.940000   17.110000
    115          1           0       25.290000   22.160000   16.720000
    116          8           0       16.920000   23.000000   16.200000
    117          1           0       17.670000   23.590000   16.140000
    118          1           0       16.240000   23.410000   15.670000
    119          8           0       25.270000   17.550000   22.750000
    120          1           0       24.960000   18.450000   22.620000
    121          1           0       25.770000   17.360000   21.950000
    122          8           0       21.060000   20.460000   13.910000
    123          1           0       21.510000   19.750000   14.370000
    124          1           0       20.130000   20.230000   13.970000
    125          8           0       15.390000   16.340000   22.620000
    126          1           0       15.640000   16.440000   21.700000
    127          1           0       16.140000   16.670000   23.110000
    128          8           0       22.940000   24.380000   17.080000
    129          1           0       23.360000   24.370000   17.950000
    130          1           0       23.260000   25.180000   16.670000
    131          8           0       21.150000   23.200000   25.510000
    132          1           0       21.310000   23.590000   24.650000
    133          1           0       20.600000   22.430000   25.330000
    134          8           0       21.360000   26.000000   18.740000
    135          1           0       21.680000   25.430000   18.040000
    136          1           0       21.780000   25.660000   19.530000
    137          8           0       18.190000   14.650000   22.720000
    138          1           0       17.930000   15.400000   23.250000
    139          1           0       17.700000   14.760000   21.900000
    140          8           0       20.440000   15.730000   24.770000
    141          1           0       21.270000   16.210000   24.780000
    142          1           0       19.770000   16.410000   24.910000
    143          8           0       15.830000   17.660000   15.590000
    144          1           0       15.060000   17.490000   15.040000
    145          1           0       15.700000   18.540000   15.930000
    146          8           0       23.030000   16.880000   24.630000
    147          1           0       23.280000   17.760000   24.900000
    148          1           0       23.730000   16.610000   24.020000
    149          8           0       17.160000   26.720000   21.130000
    150          1           0       18.030000   27.070000   21.300000
    151          1           0       17.300000   25.790000   20.960000
    152          8           0       24.860000   22.030000   24.610000
    153          1           0       25.180000   22.590000   25.310000
    154          1           0       24.540000   22.630000   23.940000
    155          8           0       15.910000   14.730000   19.940000
    156          1           0       15.260000   14.840000   19.250000
    157          1           0       16.660000   14.330000   19.500000
    158          8           0       21.120000   12.750000   19.980000
    159          1           0       20.920000   12.730000   20.920000
    160          1           0       21.630000   13.550000   19.870000
    161          8           0       25.060000   23.960000   21.890000
    162          1           0       25.900000   24.380000   21.690000
    163          1           0       24.720000   24.460000   22.630000
    164          8           0       26.020000   17.270000   16.690000
    165          1           0       26.080000   16.400000   16.280000
    166          1           0       25.530000   17.120000   17.500000
    167          8           0       19.970000   15.790000   13.900000
    168          1           0       19.460000   15.330000   13.230000
    169          1           0       19.440000   16.550000   14.130000
    170          8           0       12.830000   19.260000   17.010000
    171          1           0       12.310000   18.680000   17.570000
    172          1           0       13.340000   19.790000   17.630000
    173          8           0       13.270000   21.910000   23.900000
    174          1           0       13.360000   22.120000   24.830000
    175          1           0       14.000000   21.330000   23.710000
    176          8           0       25.170000   19.340000   15.050000
    177          1           0       25.620000   18.560000   15.360000
    178          1           0       25.730000   20.070000   15.330000
    179          8           0       22.780000   21.740000   26.990000
    180          1           0       22.510000   22.390000   26.330000
    181          1           0       22.560000   22.150000   27.830000
    182          8           0       23.550000   22.410000   13.950000
    183          1           0       23.020000   23.200000   13.900000
    184          1           0       22.970000   21.720000   13.610000
    185          8           0       18.550000   21.250000   27.010000
    186          1           0       17.700000   21.640000   26.800000
    187          1           0       18.580000   21.230000   27.970000
    188          8           0       20.230000   12.850000   22.360000
    189          1           0       20.370000   12.360000   23.170000
    190          1           0       19.340000   13.190000   22.450000
    191          8           0       12.670000   22.400000   21.220000
    192          1           0       12.920000   21.710000   20.610000
    193          1           0       13.080000   22.160000   22.050000
    194          8           0       12.810000   17.010000   21.720000
    195          1           0       12.660000   16.890000   20.780000
    196          1           0       13.710000   16.720000   21.860000
    197          8           0       15.390000   26.670000   18.690000
    198          1           0       14.530000   26.510000   19.060000
    199          1           0       15.990000   26.170000   19.250000
    200          8           0       19.120000   25.660000   13.940000
    201          1           0       19.750000   25.450000   13.240000
    202          1           0       19.370000   25.080000   14.660000
    203          8           0       20.240000   26.570000   24.940000
    204          1           0       19.470000   26.370000   25.470000
    205          1           0       20.580000   25.710000   24.700000
    206          8           0       22.730000   19.020000   27.840000
    207          1           0       22.260000   19.270000   27.040000
[...]
   Z335      51.83519   0.01224   0.00000   0.00743   0.00725  51.84243
   X336      27.83567  -0.00436   0.00000  -0.00734  -0.00760  27.82807
   Y336      33.27808  -0.00242   0.00000  -0.00421  -0.00451  33.27356
   Z336      50.51238  -0.00271   0.00000  -0.00216  -0.00233  50.51005
   X337      29.61201   0.00774   0.00000   0.00327   0.00296  29.61497
   Y337      31.08599  -0.01485   0.00000  -0.00862  -0.00899  31.07701
   Z337      51.02261  -0.00984   0.00000  -0.00522  -0.00543  51.01718
   X338      29.95216  -0.02204   0.00000  -0.01821  -0.01861  29.93355
   Y338      22.16649   0.00301   0.00000   0.00645   0.00630  22.17278
   Z338      43.95503   0.02025   0.00000   0.02344   0.02296  43.97799
   X339      30.33010   0.00199   0.00000  -0.00257  -0.00293  30.32717
   Y339      23.71606   0.00424   0.00000  -0.00022  -0.00036  23.71570
   Z339      43.10465  -0.00748   0.00000  -0.00606  -0.00649  43.09817
   X340      31.29386   0.00856   0.00000   0.00071   0.00028  31.29415
   Y340      21.05155   0.00245   0.00000   0.01225   0.01208  21.06363
   Z340      43.48260  -0.00575   0.00000  -0.00290  -0.00339  43.47920
   X341      21.67516   0.00786   0.00000   0.00259   0.00258  21.67774
   Y341      33.48595  -0.00433   0.00000  -0.01230  -0.01199  33.47396
   Z341      35.31898  -0.00262   0.00000  -0.00134  -0.00160  35.31738
   X342      20.42794  -0.01092   0.00000  -0.01334  -0.01334  20.41460
   Y342      32.99462  -0.00613   0.00000  -0.00889  -0.00852  32.98610
   Z342      34.10956  -0.00331   0.00000   0.00010  -0.00020  34.10936
   X343      20.86258  -0.00453   0.00000  -0.00330  -0.00334  20.85924
   Y343      33.31587   0.00316   0.00000   0.00680   0.00708  33.32295
   Z343      36.92525   0.00962   0.00000   0.00896   0.00868  36.93393
   X344      54.80206   0.00525   0.00000   0.00214   0.00221  54.80427
   Y344      34.92214   0.00017   0.00000   0.00285   0.00249  34.92463
   Z344      32.03086   0.00972   0.00000   0.00524   0.00555  32.03641
   X345      53.12020  -0.01182   0.00000  -0.00962  -0.00953  53.11067
   Y345      34.77096  -0.00486   0.00000  -0.00771  -0.00802  34.76294
   Z345      31.38835  -0.00106   0.00000   0.00272   0.00299  31.39135
   X346      55.76582   0.00405   0.00000   0.00255   0.00266  55.76848
   Y346      35.48906   0.00265   0.00000   0.00221   0.00186  35.49092
   Z346      30.61356  -0.00719   0.00000  -0.00610  -0.00576  30.60780
   X347      26.53175  -0.01226   0.00000  -0.01392  -0.01422  26.51754
   Y347      23.45150  -0.00561   0.00000  -0.00541  -0.00533  23.44617
   Z347      39.07954   0.00278   0.00000  -0.00407  -0.00457  39.07497
   X348      27.47662   0.01151   0.00000   0.01410   0.01384  27.49046
   Y348      24.30188   0.00512   0.00000   0.00447   0.00456  24.30644
   Z348      37.79452  -0.00200   0.00000   0.00583   0.00538  37.79990
   X349      27.26875   0.00404   0.00000   0.00678   0.00644  27.27519
   Y349      21.78854   0.00223   0.00000   0.00401   0.00406  21.79261
   Z349      39.15513   0.00289   0.00000   0.00658   0.00605  39.16117
   X350      44.25739   0.01286   0.00000   0.00957   0.00915  44.26654
   Y350      22.05310  -0.02371   0.00000  -0.01735  -0.01785  22.03526
   Z350      44.42746  -0.01690   0.00000  -0.01593  -0.01619  44.41128
   X351      43.16134  -0.00498   0.00000   0.00577   0.00538  43.16672
   Y351      23.37591   0.01603   0.00000   0.00769   0.00720  23.38311
   Z351      44.99438   0.01029   0.00000   0.00733   0.00710  45.00148
   X352      45.73137  -0.00029   0.00000  -0.00007  -0.00050  45.73087
   Y352      22.20428   0.00256   0.00000   0.00178   0.00122  22.20550
   Z352      45.48571   0.00041   0.00000  -0.00208  -0.00231  45.48340
   X353      29.19627  -0.01321   0.00000  -0.00829  -0.00819  29.18808
   Y353      30.38680   0.00501   0.00000   0.00149   0.00198  30.38877
   Z353      23.73496  -0.00920   0.00000  -0.00361  -0.00385  23.73111
   X354      30.19782   0.00306   0.00000   0.00300   0.00314  30.20097
   Y354      31.70960   0.00140   0.00000   0.00044   0.00093  31.71053
   Z354      22.99797   0.00105   0.00000   0.00263   0.00245  23.00042
   X355      30.29231   0.00907   0.00000   0.00295   0.00302  30.29533
   Y355      29.57421  -0.00722   0.00000  -0.00478  -0.00435  29.56987
   Z355      24.90659   0.01382   0.00000   0.01221   0.01197  24.91856
   X356      54.38632   0.02321   0.00000   0.01415   0.01440  54.40072
   Y356      43.01017   0.00546   0.00000   0.01096   0.01059  43.02075
   Z356      32.74895  -0.00888   0.00000  -0.01326  -0.01270  32.73625
   X357      53.32807  -0.01158   0.00000  -0.00666  -0.00640  53.32167
   Y357      43.82275   0.00074   0.00000  -0.00665  -0.00704  43.81571
   Z357      33.95838   0.01270   0.00000   0.01025   0.01082  33.96919
   X358      53.27138  -0.01251   0.00000  -0.00988  -0.00963  53.26175
   Y358      42.08420  -0.00837   0.00000  -0.00716  -0.00747  42.07673
   Z358      31.69071  -0.00469   0.00000  -0.00019   0.00032  31.69102
   X359      50.49348   0.01294   0.00000   0.00946   0.00919  50.50268
   Y359      25.47351   0.01526   0.00000   0.01191   0.01140  25.48491
   Z359      40.08109   0.00960   0.00000   0.00278   0.00273  40.08382
   X360      48.81163  -0.01686   0.00000  -0.00989  -0.01017  48.80146
   Y360      24.84990  -0.00582   0.00000  -0.00110  -0.00156  24.84834
   Z360      39.75984  -0.00520   0.00000  -0.00390  -0.00400  39.75584
   X361      51.53283   0.00547   0.00000   0.00409   0.00382  51.53665
   Y361      24.56644  -0.00935   0.00000  -0.00908  -0.00958  24.55686
   Z361      38.92836  -0.00815   0.00000  -0.00556  -0.00563  38.92273
   X362      34.58199  -0.02298   0.00000  -0.01981  -0.01952  34.56247
   Y362      53.97058  -0.00191   0.00000   0.00063   0.00029  53.97087
   Z362      46.50616   0.00559   0.00000   0.01039   0.01096  46.51712
   X363      35.77252   0.01091   0.00000   0.00586   0.00618  35.77870
   Y363      55.31228   0.00625   0.00000   0.00143   0.00106  55.31335
   Z363      46.65734  -0.00188   0.00000  -0.00518  -0.00454  46.65280
   X364      35.60244   0.00741   0.00000   0.00445   0.00471  35.60715
   Y364      52.47769  -0.00044   0.00000   0.00629   0.00593  52.48363
   Z364      46.41167  -0.00948   0.00000  -0.01757  -0.01702  46.39466
   X365      33.35367   0.00811   0.00000   0.01689   0.01649  33.37015
   Y365      20.20117  -0.00174   0.00000  -0.00768  -0.00783  20.19334
   Z365      41.08265   0.00572   0.00000   0.00096   0.00047  41.08312
   X366      34.27963   0.00595   0.00000   0.00681   0.00645  34.28608
   Y366      21.07045   0.00466   0.00000   0.00449   0.00437  21.07481
   Z366      39.79763  -0.00867   0.00000  -0.00968  -0.01013  39.78750
   X367      32.80565  -0.00267   0.00000  -0.00143  -0.00186  32.80379
   Y367      18.67049  -0.00932   0.00000  -0.00819  -0.00830  18.66220
   Z367      40.30786  -0.00709   0.00000  -0.00831  -0.00885  40.29900
   X368      41.13934   0.00465   0.00000   0.00850   0.00881  41.14815
   Y368      54.15955   0.01420   0.00000   0.00669   0.00623  54.16578
   Z368      45.65578  -0.01683   0.00000  -0.01605  -0.01536  45.64043
   X369      42.57553   0.00792   0.00000   0.00573   0.00603  42.58156
   Y369      54.48080   0.00276   0.00000   0.00436   0.00382  54.48463
   Z369      46.69513   0.00776   0.00000   0.00693   0.00765  46.70279
   X370      40.47793  -0.01394   0.00000  -0.01768  -0.01742  40.46052
   Y370      52.59108  -0.01208   0.00000  -0.00051  -0.00098  52.59010
   Z370      46.27939   0.00969   0.00000   0.00827   0.00890  46.28829
   X371      47.50771   0.00075   0.00000   0.00011  -0.00023  47.50748
   Y371      30.55687  -0.00603   0.00000  -0.00314  -0.00395  30.55292
   Z371      51.91078  -0.00248   0.00000  -0.00381  -0.00375  51.90703
   X372      47.50771  -0.00287   0.00000  -0.00456  -0.00485  47.50287
   Y372      32.14424   0.00458   0.00000   0.00430   0.00352  32.14776
   Z372      51.02261  -0.00062   0.00000   0.00004   0.00015  51.02275
   X373      46.75182  -0.00029   0.00000   0.00098   0.00062  46.75245
   Y373      30.95371   0.00310   0.00000   0.00440   0.00356  30.95727
   Z373      53.51704  -0.00002   0.00000  -0.00215  -0.00209  53.51495
   X374      30.84033   0.00103   0.00000  -0.00018   0.00021  30.84054
   Y374      41.61177   0.00434   0.00000  -0.00223  -0.00173  41.61004
   Z374      22.20428   0.00542   0.00000   0.00384   0.00397  22.20826
   X375      32.25763   0.00204   0.00000  -0.00069  -0.00028  32.25734
   Y375      41.34721   0.00004   0.00000   0.00122   0.00172  41.34893
   Z375      21.10824  -0.00567   0.00000  -0.00685  -0.00670  21.10155
   X376      29.74429  -0.00412   0.00000  -0.00228  -0.00191  29.74238
   Y376      40.21337  -0.01016   0.00000  -0.01114  -0.01060  40.20277
   Z376      21.88303  -0.00326   0.00000  -0.00381  -0.00374  21.87929
   X377      48.35809  -0.01100   0.00000  -0.00681  -0.00637  48.35172
   Y377      47.01639   0.00211   0.00000   0.00484   0.00478  47.02116
   Z377      27.26875   0.00820   0.00000   0.00773   0.00831  27.27706
   X378      50.02105   0.00875   0.00000   0.00314   0.00357  50.02462
   Y378      46.39278  -0.00241   0.00000  -0.00130  -0.00140  46.39138
   Z378      26.92860  -0.00249   0.00000  -0.00137  -0.00078  26.92782
   X379      48.26361   0.00571   0.00000   0.00870   0.00919  48.27279
   Y379      48.60376   0.00376   0.00000   0.00312   0.00308  48.60684
   Z379      26.39947  -0.00490   0.00000  -0.00658  -0.00595  26.39352
   X380      19.61536   0.00114   0.00000  -0.00250  -0.00233  19.61303
   Y380      39.41969   0.01106   0.00000   0.00747   0.00789  39.42758
   Z380      33.08910   0.00460   0.00000   0.00573   0.00562  33.09472
   X381      20.80588   0.00595   0.00000   0.00663   0.00676  20.81265
   Y381      38.09688  -0.00187   0.00000   0.00241   0.00279  38.09967
   Z381      33.44815  -0.00278   0.00000  -0.00620  -0.00633  33.44182
   X382      18.17917  -0.00712   0.00000  -0.00467  -0.00452  18.17465
   Y382      38.56931  -0.00591   0.00000  -0.00502  -0.00454  38.56477
   Z382      32.40880  -0.00377   0.00000  -0.00268  -0.00284  32.40596
   X383      30.57577   0.00377   0.00000   0.00806   0.00853  30.58430
   Y383      55.31228   0.01787   0.00000   0.01522   0.01526  55.32755
   Z383      37.24650  -0.00919   0.00000  -0.01022  -0.00966  37.23684
   X384      30.91592  -0.00470   0.00000  -0.01134  -0.01091  30.90501
   Y384      54.91544  -0.00015   0.00000   0.00468   0.00466  54.92010
   Z384      38.98505   0.00889   0.00000   0.00428   0.00483  38.98988
   X385      30.46239  -0.00201   0.00000  -0.00354  -0.00309  30.45929
   Y385      53.70602  -0.00913   0.00000  -0.00403  -0.00396  53.70205
   Z385      36.43392  -0.00141   0.00000   0.00119   0.00170  36.43562
         Item               Value     Threshold  Converged?
 Maximum Force            0.032865     0.000450     NO 
 RMS     Force            0.010137     0.000300     NO 
 Maximum Displacement     0.037884     0.001800     NO 
 RMS     Displacement     0.008844     0.001200     NO 
 Predicted change in Energy=-7.041237D-02
 GradGradGradGradGradGradGradGradGradGradGradGradGradGradGradGradGradGrad

 Leave Link  103 at Tue May  8 09:47:12 2018, MaxMem= 14763950080 cpu:      2685.7
 (Enter /cm/shared/gaussian/g09.e01/intel64-sandybridge/g09/l9999.exe)
 1\1\GINC-POPLE01\Force\RPBE1PBE\CC-pVDZ\Br1H256O128(1-)\M.PELUSO\08-Ma
 y-2018\0\\#p PBE1PBE/cc-pvDZ force Counterpoise=2 noSymm\\forces on ch
 loride comput - NWATER: 128\\-1,1\Br,20.,20.,20.\O,18.56,19.12,17.55\H
 ,18.94,19.73,16.91\H,18.91,19.41,18.39\O,22.21,17.71,19.75\H,21.59,18.
 4,19.99\H,21.69,17.09,19.25\O,19.46,18.37,22.77\H,19.85,18.75,23.56\H,
 19.76,18.94,22.06\O,22.89,21.31,20.73\H,23.37,21.03,19.95\H,22.15,20.7
 ,20.79\O,21.16,21.89,17.35\H,21.36,22.7,17.82\H,20.8,21.31,18.01\O,19.
 88,23.31,20.97\H,19.14,23.67,20.47\H,19.54,22.5,21.34\O,16.48,20.24,20
 .54\H,17.09,19.72,20.01\H,16.84,21.12,20.52\O,18.99,21.49,23.\H,18.65,
 20.7,22.58\H,19.85,21.23,23.32\O,17.69,17.04,20.43\H,18.32,17.22,21.14
 \H,18.06,17.48,19.67\O,21.8,21.12,23.15\H,22.32,21.02,22.36\H,21.75,22
 .07,23.28\O,22.19,19.63,16.3\H,21.74,20.42,16.6\H,23.,19.95,15.91\O,24
 .12,19.87,18.84\H,23.65,19.33,18.2\H,24.43,20.62,18.33\O,22.71,23.92,2
 0.02\H,22.78,23.07,20.46\H,23.12,24.54,20.62\O,16.02,20.34,16.65\H,16.
 18,21.28,16.62\H,16.84,19.97,17.\O,21.51,24.04,22.96\H,20.9,23.81,22.2
 6\H,22.05,24.74,22.6\O,18.42,17.36,15.45\H,17.47,17.49,15.44\H,18.71,1
 7.79,16.26\O,20.5,15.65,18.74\H,20.45,15.36,19.65\H,19.74,15.26,18.32\
 O,20.61,15.58,21.44\H,21.32,15.49,22.08\H,19.87,15.12,21.85\O,24.86,17
 .18,19.71\H,23.96,17.43,19.9\H,25.2,17.88,19.16\O,17.82,17.,24.34\H,17
 .38,17.78,24.69\H,18.43,17.34,23.69\O,18.57,24.12,23.66\H,18.77,23.23,
 23.37\H,18.61,24.64,22.86\O,25.33,20.79,21.95\H,25.12,21.67,22.27\H,24
 .75,20.66,21.19\O,15.01,17.38,19.97\H,15.91,17.1,20.12\H,14.78,17.04,1
 9.11\O,17.17,24.18,21.08\H,16.63,23.9,20.34\H,16.77,23.77,21.84\O,19.9
 5,23.51,15.47\H,19.76,22.84,14.82\H,20.71,23.18,15.95\O,23.26,19.71,25
 .08\H,22.64,20.13,24.49\H,23.71,20.43,25.52\O,14.27,20.,22.05\H,14.95,
 20.04,21.37\H,13.62,19.39,21.71\O,22.38,16.05,16.83\H,21.72,15.76,17.4
 5\H,21.93,16.68,16.27\O,23.2,14.81,19.86\H,22.96,15.67,20.22\H,23.58,1
 5.01,19.\O,13.87,20.81,18.88\H,14.77,20.55,18.68\H,13.82,21.72,18.59\O
 ,20.06,19.19,25.38\H,20.06,18.45,25.99\H,19.58,19.88,25.84\O,15.63,23.
 66,18.54\H,16.44,23.69,18.02\H,14.96,23.37,17.92\O,18.44,20.34,14.73\H
 ,18.11,19.44,14.71\H,17.69,20.87,14.99\O,17.86,15.42,17.58\H,18.19,15.
 51,16.69\H,17.,15.83,17.57\O,16.09,22.53,23.63\H,16.48,21.74,24.01\H,1
 6.35,23.23,24.23\O,18.8,25.33,17.38\H,19.31,25.46,18.17\H,19.26,24.64,
 16.91\O,15.79,18.71,24.27\H,14.97,18.46,24.69\H,15.54,19.04,23.41\O,24
 .57,22.18,17.36\H,24.05,22.94,17.11\H,25.29,22.16,16.72\O,16.92,23.,16
 .2\H,17.67,23.59,16.14\H,16.24,23.41,15.67\O,25.27,17.55,22.75\H,24.96
 ,18.45,22.62\H,25.77,17.36,21.95\O,21.06,20.46,13.91\H,21.51,19.75,14.
 37\H,20.13,20.23,13.97\O,15.39,16.34,22.62\H,15.64,16.44,21.7\H,16.14,
 16.67,23.11\O,22.94,24.38,17.08\H,23.36,24.37,17.95\H,23.26,25.18,16.6
 7\O,21.15,23.2,25.51\H,21.31,23.59,24.65\H,20.6,22.43,25.33\O,21.36,26
 .,18.74\H,21.68,25.43,18.04\H,21.78,25.66,19.53\O,18.19,14.65,22.72\H,
 17.93,15.4,23.25\H,17.7,14.76,21.9\O,20.44,15.73,24.77\H,21.27,16.21,2
 4.78\H,19.77,16.41,24.91\O,15.83,17.66,15.59\H,15.06,17.49,15.04\H,15.
 7,18.54,15.93\O,23.03,16.88,24.63\H,23.28,17.76,24.9\H,23.73,16.61,24.
 02\O,17.16,26.72,21.13\H,18.03,27.07,21.3\H,17.3,25.79,20.96\O,24.86,2
 2.03,24.61\H,25.18,22.59,25.31\H,24.54,22.63,23.94\O,15.91,14.73,19.94
 \H,15.26,14.84,19.25\H,16.66,14.33,19.5\O,21.12,12.75,19.98\H,20.92,12
 .73,20.92\H,21.63,13.55,19.87\O,25.06,23.96,21.89\H,25.9,24.38,21.69\H
 ,24.72,24.46,22.63\O,26.02,17.27,16.69\H,26.08,16.4,16.28\H,25.53,17.1
 2,17.5\O,19.97,15.79,13.9\H,19.46,15.33,13.23\H,19.44,16.55,14.13\O,12
 .83,19.26,17.01\H,12.31,18.68,17.57\H,13.34,19.79,17.63\O,13.27,21.91,
 23.9\H,13.36,22.12,24.83\H,14.,21.33,23.71\O,25.17,19.34,15.05\H,25.62
 ,18.56,15.36\H,25.73,20.07,15.33\O,22.78,21.74,26.99\H,22.51,22.39,26.
 33\H,22.56,22.15,27.83\O,23.55,22.41,13.95\H,23.02,23.2,13.9\H,22.97,2
 1.72,13.61\O,18.55,21.25,27.01\H,17.7,21.64,26.8\H,18.58,21.23,27.97\O
 ,20.23,12.85,22.36\H,20.37,12.36,23.17\H,19.34,13.19,22.45\O,12.67,22.
 4,21.22\H,12.92,21.71,20.61\H,13.08,22.16,22.05\O,12.81,17.01,21.72\H,
 12.66,16.89,20.78\H,13.71,16.72,21.86\O,15.39,26.67,18.69\H,14.53,26.5
 1,19.06\H,15.99,26.17,19.25\O,19.12,25.66,13.94\H,19.75,25.45,13.24\H,
 19.37,25.08,14.66\O,20.24,26.57,24.94\H,19.47,26.37,25.47\H,20.58,25.7
 1,24.7\O,22.73,19.02,27.84\H,22.26,19.27,27.04\H,23.05,19.85,28.19\O,2
 2.62,12.74,17.62\H,21.86,13.27,17.37\H,22.4,12.41,18.49\O,25.1,14.29,1
 7.07\H,24.9,13.36,17.12\H,24.28,14.7,16.83\O,22.33,26.82,22.16\H,22.3,
 27.72,22.49\H,23.02,26.84,21.49\O,17.35,15.51,26.64\H,17.34,14.55,26.6
 4\H,17.69,15.75,25.77\O,22.29,13.63,24.73\H,21.54,14.23,24.64\H,22.7,1
 3.87,25.55\O,19.65,27.68,21.86\H,20.19,27.96,21.13\H,20.24,27.18,22.42
 \O,16.73,14.77,15.18\H,16.66,13.84,15.4\H,17.63,14.87,14.87\O,17.99,25
 .58,26.13\H,17.94,25.08,25.32\H,17.25,26.19,26.08\O,21.59,13.78,14.69\
 H,22.52,13.95,14.83\H,21.19,14.64,14.62\O,14.44,15.19,17.73\H,14.5,14.
 5,17.06\H,13.61,15.62,17.55\O,28.11,19.61,22.78\H,28.59,20.13,22.13\H,
 27.22,19.96,22.74\O,20.64,28.5,19.48\H,20.89,29.13,18.8\H,20.64,27.65,
 19.02\O,19.73,22.91,12.58\H,18.84,22.64,12.34\H,20.25,22.11,12.49\O,13
 .71,23.36,16.74\H,13.6,22.8,15.97\H,13.18,24.14,16.55\O,24.34,26.93,20
 .36\H,24.73,26.33,19.73\H,24.93,27.69,20.37\O,24.27,12.35,20.84\H,24.0
 4,12.19,21.76\H,23.62,12.99,20.53\O,22.66,20.92,11.61\H,22.25,20.63,12
 .42\H,21.93,21.05,11.01\O,20.95,16.92,27.29\H,21.25,16.01,27.3\H,21.75
 ,17.44,27.37\O,17.03,12.67,18.49\H,16.66,12.78,17.61\H,17.78,12.1,18.3
 6\O,20.04,24.8,27.49\H,20.41,24.13,26.91\H,19.11,24.83,27.27\O,26.41,2
 2.1,15.03\H,27.06,22.38,14.39\H,25.57,22.4,14.66\O,16.76,27.49,16.52\H
 ,17.54,26.97,16.69\H,16.22,27.36,17.3\O,24.85,24.95,24.32\H,24.39,25.5
 5,24.91\H,25.75,25.28,24.3\O,27.33,24.,19.54\H,28.09,24.54,19.72\H,26.
 86,24.46,18.84\O,19.67,11.13,18.56\H,20.11,11.77,19.11\H,19.82,10.29,1
 9.\O,26.31,25.13,17.14\H,25.74,24.81,16.46\H,26.69,25.93,16.78\O,26.79
 ,15.71,24.75\H,26.44,15.7,25.64\H,26.08,16.09,24.22\O,14.29,14.56,25.\
 H,14.63,15.06,24.26\H,14.52,13.65,24.8\O,22.67,17.85,12.24\H,23.32,18.
 56,12.2\H,23.17,17.06,12.\O,23.25,26.73,15.89\H,23.33,27.35,16.61\H,23
 .92,27.,15.26\O,13.07,24.77,22.89\H,13.25,24.11,23.56\H,12.87,24.26,22
 .11\O,18.38,17.27,28.36\H,19.21,16.96,28.\H,17.71,16.76,27.9\O,24.29,1
 4.61,14.28\H,24.04,15.46,13.91\H,25.24,14.68,14.42\O,25.08,19.98,12.15
 \H,25.18,19.97,13.1\H,24.31,20.52,11.99\O,19.66,28.43,15.81\H,19.29,27
 .55,15.86\H,20.,28.5,14.92\O,15.5,23.79,13.65\H,15.56,23.04,13.06\H,14
 .57,23.98,13.71\O,13.32,17.93,25.11\H,12.89,17.14,24.78\H,12.69,18.63,
 24.94\O,22.74,25.46,13.31\H,23.68,25.64,13.22\H,22.49,25.88,14.13\O,12
 .67,18.59,14.31\H,11.76,18.29,14.24\H,12.81,18.73,15.24\O,27.,21.25,26
 .46\H,27.46,22.08,26.36\H,26.59,21.09,25.61\O,27.79,16.08,20.9\H,27.38
 ,15.24,20.69\H,28.09,16.42,20.06\O,15.9,28.56,22.39\H,16.36,27.8,22.03
 \H,16.43,28.84,23.13\O,15.22,17.17,27.43\H,14.73,17.61,26.73\H,15.67,1
 6.45,27.\O,15.85,11.73,23.26\H,16.05,12.55,22.81\H,16.56,11.14,23.01\O
 ,11.47,17.72,18.69\H,10.81,17.46,18.05\H,11.04,17.63,19.54\O,29.,18.48
 ,16.95\H,28.11,18.4,16.61\H,29.51,18.78,16.2\O,14.04,12.41,20.68\H,14.
 54,12.86,20.\H,14.43,11.53,20.72\O,23.42,11.67,23.51\H,22.84,12.37,23.
 81\H,24.2,11.75,24.07\O,15.45,16.08,12.56\H,15.98,16.78,12.17\H,16.03,
 15.65,13.18\O,28.78,22.76,17.33\H,28.22,23.19,17.97\H,28.19,22.27,16.7
 7\O,26.72,13.48,21.21\H,25.83,13.15,21.04\H,27.27,13.,20.6\O,18.3,28.5
 6,24.61\H,18.93,29.27,24.69\H,18.84,27.77,24.56\O,17.65,10.69,21.74\H,
 18.14,11.15,21.06\H,17.36,9.88,21.33\O,21.77,28.66,24.16\H,22.53,28.83
 ,24.71\H,21.42,27.83,24.49\O,25.14,16.17,27.47\H,25.14,17.01,27.\H,24.
 74,16.38,28.32\O,16.32,22.02,11.75\H,17.07,21.88,11.17\H,15.74,21.28,1
 1.58\O,25.59,24.88,14.43\H,26.47,24.55,14.25\H,25.54,25.72,13.97\O,10.
 38,20.86,17.51\H,11.01,20.16,17.7\H,9.62,20.41,17.15\O,16.18,29.27,19.
 71\H,16.36,29.06,20.63\H,16.12,28.42,19.28\\Version=ES64L-G09RevE.01\H
 F=-9773.258703\RMSD=1.926e-09\RMSF=1.014e-02\Dipole=1.9709033,5.404826
 1,-11.7375359\Quadrupole=267.7737097,448.5476554,-716.3213651,-864.595
 9315,-1778.4207431,-1632.359872\PG=C01 [X(Br1H256O128)]\\@


 I DON'T PRETEND TO UNDERSTAND THE UNIVERSE --
 IT'S A GREAT DEAL BIGGER THAN I AM.
       -- ATTR. TO WILLIAM ALLINGHAM (1828-89)
 Job cpu time:       7 days  7 hours 26 minutes 43.3 seconds.
 File lengths (MBytes):  RWF=   7285 Int=      0 D2E=      0 Chk=   2411 Scr=      1
 Normal termination of Gaussian 09 at Tue May  8 09:47:35 2018.
