 Entering Gaussian System, Link 0=/cm/shared/gaussian/g09.e01/intel64-sandybridge/g09/g09
 Initial command:
 /cm/shared/gaussian/g09.e01/intel64-sandybridge/g09/l1.exe "/local/scratch/m.peluso/128_wat/Gau-3396.inp" -scrdir="/local/scratch/m.peluso/128_wat/"
 Entering Link 1 = /cm/shared/gaussian/g09.e01/intel64-sandybridge/g09/l1.exe PID=      3397.
  
 Copyright (c) 1988,1990,1992,1993,1995,1998,2003,2009,2015,
            Gaussian, Inc.  All Rights Reserved.
  
 This is part of the Gaussian(R) 09 program.  It is based on
 the Gaussian(R) 03 system (copyright 2003, Gaussian, Inc.),
 the Gaussian(R) 98 system (copyright 1998, Gaussian, Inc.),
 the Gaussian(R) 94 system (copyright 1995, Gaussian, Inc.),
 the Gaussian 92(TM) system (copyright 1992, Gaussian, Inc.),
 the Gaussian 90(TM) system (copyright 1990, Gaussian, Inc.),
 the Gaussian 88(TM) system (copyright 1988, Gaussian, Inc.),
 the Gaussian 86(TM) system (copyright 1986, Carnegie Mellon
 University), and the Gaussian 82(TM) system (copyright 1983,
 Carnegie Mellon University). Gaussian is a federally registered
 trademark of Gaussian, Inc.
  
 This software contains proprietary and confidential information,
 including trade secrets, belonging to Gaussian, Inc.
  
 This software is provided under written license and may be
 used, copied, transmitted, or stored only in accord with that
 written license.
  
 The following legend is applicable only to US Government
 contracts under FAR:
  
                    RESTRICTED RIGHTS LEGEND
  
 Use, reproduction and disclosure by the US Government is
 subject to restrictions as set forth in subparagraphs (a)
 and (c) of the Commercial Computer Software - Restricted
 Rights clause in FAR 52.227-19.
  
 Gaussian, Inc.
 340 Quinnipiac St., Bldg. 40, Wallingford CT 06492
  
  
 ---------------------------------------------------------------
 Warning -- This program may not be used in any manner that
 competes with the business of Gaussian, Inc. or will provide
 assistance to any competitor of Gaussian, Inc.  The licensee
 of this program is prohibited from giving any competitor of
 Gaussian, Inc. access to this program.  By using this program,
 the user acknowledges that Gaussian, Inc. is engaged in the
 business of creating and licensing software in the field of
 computational chemistry and represents and warrants to the
 licensee that it is not a competitor of Gaussian, Inc. and that
 it will not use this program in any manner prohibited above.
 ---------------------------------------------------------------
  

 Cite this work as:
 Gaussian 09, Revision E.01,
 M. J. Frisch, G. W. Trucks, H. B. Schlegel, G. E. Scuseria, 
 M. A. Robb, J. R. Cheeseman, G. Scalmani, V. Barone, B. Mennucci, 
 G. A. Petersson, H. Nakatsuji, M. Caricato, X. Li, H. P. Hratchian, 
 A. F. Izmaylov, J. Bloino, G. Zheng, J. L. Sonnenberg, M. Hada, 
 M. Ehara, K. Toyota, R. Fukuda, J. Hasegawa, M. Ishida, T. Nakajima, 
 Y. Honda, O. Kitao, H. Nakai, T. Vreven, J. A. Montgomery, Jr., 
 J. E. Peralta, F. Ogliaro, M. Bearpark, J. J. Heyd, E. Brothers, 
 K. N. Kudin, V. N. Staroverov, T. Keith, R. Kobayashi, J. Normand, 
 K. Raghavachari, A. Rendell, J. C. Burant, S. S. Iyengar, J. Tomasi, 
 M. Cossi, N. Rega, J. M. Millam, M. Klene, J. E. Knox, J. B. Cross, 
 V. Bakken, C. Adamo, J. Jaramillo, R. Gomperts, R. E. Stratmann, 
 O. Yazyev, A. J. Austin, R. Cammi, C. Pomelli, J. W. Ochterski, 
 R. L. Martin, K. Morokuma, V. G. Zakrzewski, G. A. Voth, 
 P. Salvador, J. J. Dannenberg, S. Dapprich, A. D. Daniels, 
 O. Farkas, J. B. Foresman, J. V. Ortiz, J. Cioslowski, 
 and D. J. Fox, Gaussian, Inc., Wallingford CT, 2013.
 
 ******************************************
 Gaussian 09:  ES64L-G09RevE.01 30-Nov-2015
                16-May-2018 
 ******************************************
 %Mem=110GB
 %NProcShared=64
 Will use up to   64 processors via shared memory.
 %chk=snap106.chk
 ----------------------------------------------
 #p PBE1PBE/cc-pvDZ force Counterpoise=2 noSymm
 ----------------------------------------------
 1/10=7,30=1,38=1,62=2/1,3;
 2/12=2,15=1,17=6,18=5,40=1/2;
 1/10=7,30=1,38=1,53=2,62=2,63=101/22;
 3/5=16,11=2,16=1,25=1,30=1,71=1,74=-13/1,2,3;
 4//1;
 5/5=2,38=5/2;
 6/7=2,8=2,9=2,10=2,28=1/1;
 7/7=1,29=1,30=1,33=-1/1,2,3,16;
 1/10=7,30=1,53=2,62=2,63=101/22;
 3/5=7,6=11,11=2,16=1,25=1,30=1,71=1,74=-13,82=7/1,2,3;
 4//1;
 5/5=2,38=5/2;
 6/7=2,8=2,9=2,10=2,28=1/1;
 7/7=1,29=1,30=1,33=-1/1,2,3,16;
 1/10=7,30=1,53=2,62=2,63=101/22(-5);
 7/9=1,29=1,44=-1/16;
 1/10=7,30=1,62=2/3;
 99//99;
 Leave Link    1 at Wed May 16 03:59:39 2018, MaxMem= 14763950080 cpu:         8.5
 (Enter /cm/shared/gaussian/g09.e01/intel64-sandybridge/g09/l101.exe)
 ---------------------------------------
 forces on chloride comput - NWATER: 128
 ---------------------------------------
 Symbolic Z-matrix:
 Charge = -1 Multiplicity = 1 in supermolecule
 Charge = -1 Multiplicity = 1 in fragment      1.
 Charge =  0 Multiplicity = 1 in fragment      2.
 Br(Fragment=1)        20.       20.       20. 
 O(Fragment=2)         21.51     20.22     22.72 
 H(Fragment=2)         21.03     20.19     21.9 
 H(Fragment=2)         22.41     20.44     22.47 
 O(Fragment=2)         17.94     21.47     18.05 
 H(Fragment=2)         18.53     21.03     18.66 
 H(Fragment=2)         17.84     20.85     17.33 
 O(Fragment=2)         22.77     19.15     18.57 
 H(Fragment=2)         22.63     18.29     18.18 
 H(Fragment=2)         21.94     19.35     19.02 
 O(Fragment=2)         17.31     19.29     21.75 
 H(Fragment=2)         18.14     19.19     21.27 
 H(Fragment=2)         17.44     18.76     22.54 
 O(Fragment=2)         21.47     17.12     21.16 
 H(Fragment=2)         21.08     17.87     20.71 
 H(Fragment=2)         20.95     16.37     20.87 
 O(Fragment=2)         19.14     17.28     18.05 
 H(Fragment=2)         18.98     17.52     17.14 
 H(Fragment=2)         19.5      18.08     18.44 
 O(Fragment=2)         22.44     22.19     18.68 
 H(Fragment=2)         22.84     21.64     18.01 
 H(Fragment=2)         21.76     21.64     19.07 
 O(Fragment=2)         17.06     17.21     19.82 
 H(Fragment=2)         16.94     18.11     20.13 
 H(Fragment=2)         17.85     17.25     19.29 
 O(Fragment=2)         16.06     21.18     20.19 
 H(Fragment=2)         16.45     21.19     19.32 
 H(Fragment=2)         16.46     20.42     20.62 
 O(Fragment=2)         18.07     24.1      19.18 
 H(Fragment=2)         18.06     23.16     19.36 
 H(Fragment=2)         17.25     24.27     18.73 
 O(Fragment=2)         19.34     21.26     24.39 
 H(Fragment=2)         19.32     22.2      24.24 
 H(Fragment=2)         19.87     20.91     23.67 
 O(Fragment=2)         20.65     17.78     23.67 
 H(Fragment=2)         20.17     18.59     23.51 
 H(Fragment=2)         21.41     17.82     23.09 
 O(Fragment=2)         20.78     24.55     19.8 
 H(Fragment=2)         21.35     23.79     19.88 
 H(Fragment=2)         19.9      24.19     19.73 
 O(Fragment=2)         23.94     20.6      21.63 
 H(Fragment=2)         24.66     20.16     22.08 
 H(Fragment=2)         24.18     20.57     20.7 
 O(Fragment=2)         19.92     22.69     15.67 
 H(Fragment=2)         20.7      23.12     15.3 
 H(Fragment=2)         20.28     21.97     16.19 
 O(Fragment=2)         17.93     19.77     16.06 
 H(Fragment=2)         17.29     19.81     15.35 
 H(Fragment=2)         18.46     18.99     15.86 
 O(Fragment=2)         22.1      16.85     17.36 
 H(Fragment=2)         22.8      16.19     17.38 
 H(Fragment=2)         21.3      16.35     17.47 
 O(Fragment=2)         24.11     16.74     21.25 
 H(Fragment=2)         24.1      17.37     21.97 
 H(Fragment=2)         23.2      16.69     20.96 
 O(Fragment=2)         23.41     23.31     21.53 
 H(Fragment=2)         23.45     23.46     20.58 
 H(Fragment=2)         23.74     22.42     21.65 
 O(Fragment=2)         24.56     20.47     16.85 
 H(Fragment=2)         24.13     19.95     17.53 
 H(Fragment=2)         24.45     19.95     16.05 
 O(Fragment=2)         17.96     18.8      24.37 
 H(Fragment=2)         18.04     18.3      25.18 
 H(Fragment=2)         18.4      19.63     24.55 
 O(Fragment=2)         16.08     22.91     22.36 
 H(Fragment=2)         15.94     22.35     21.6 
 H(Fragment=2)         17.02     22.85     22.53 
 O(Fragment=2)         22.37     22.97     24.03 
 H(Fragment=2)         22.48     23.38     23.17 
 H(Fragment=2)         22.34     22.03     23.86 
 O(Fragment=2)         19.67     15.01     20.17 
 H(Fragment=2)         19.84     14.78     19.26 
 H(Fragment=2)         19.11     14.3      20.5 
 O(Fragment=2)         23.09     24.35     17.33 
 H(Fragment=2)         22.72     23.68     17.9 
 H(Fragment=2)         23.61     24.9      17.91 
 O(Fragment=2)         18.22     15.68     23.56 
 H(Fragment=2)         18.76     16.46     23.46 
 H(Fragment=2)         17.58     15.91     24.24 
 O(Fragment=2)         17.12     23.52     16.19 
 H(Fragment=2)         17.1      23.04     17.02 
 H(Fragment=2)         18.05     23.67     16.02 
 O(Fragment=2)         22.98     20.27     25.29 
 H(Fragment=2)         22.11     20.47     24.93 
 H(Fragment=2)         23.26     19.49     24.8 
 O(Fragment=2)         14.78     16.85     18.51 
 H(Fragment=2)         15.6      17.06     18.96 
 H(Fragment=2)         14.33     17.69     18.43 
 O(Fragment=2)         19.75     18.07     14.9 
 H(Fragment=2)         20.7      18.08     14.91 
 H(Fragment=2)         19.52     18.26     13.99 
 O(Fragment=2)         14.07     19.41     22.32 
 H(Fragment=2)         15.03     19.38     22.25 
 H(Fragment=2)         13.82     20.17     21.79 
 O(Fragment=2)         19.25     24.07     23.7 
 H(Fragment=2)         20.07     24.57     23.76 
 H(Fragment=2)         18.56     24.73     23.7 
 O(Fragment=2)         15.41     15.49     21.41 
 H(Fragment=2)         15.54     15.02     22.23 
 H(Fragment=2)         16.29     15.66     21.09 
 O(Fragment=2)         23.81     17.65     24.11 
 H(Fragment=2)         23.17     17.13     24.6 
 H(Fragment=2)         24.59     17.65     24.67 
 O(Fragment=2)         18.22     26.61     21.02 
 H(Fragment=2)         18.36     26.41     21.95 
 H(Fragment=2)         17.96     25.77     20.64 
 O(Fragment=2)         21.83     16.24     25.75 
 H(Fragment=2)         22.22     15.4      25.5 
 H(Fragment=2)         21.39     16.55     24.96 
 O(Fragment=2)         25.86     16.75     19. 
 H(Fragment=2)         26.76     16.64     19.29 
 H(Fragment=2)         25.34     16.78     19.81 
 O(Fragment=2)         21.2      26.13     22.5 
 H(Fragment=2)         21.45     27.05     22.58 
 H(Fragment=2)         21.4      25.9      21.59 
 O(Fragment=2)         13.36     21.48     20.75 
 H(Fragment=2)         12.67     22.11     20.99 
 H(Fragment=2)         13.96     21.99     20.2 
 O(Fragment=2)         23.87     14.89     17.98 
 H(Fragment=2)         24.25     15.42     18.69 
 H(Fragment=2)         23.92     13.99     18.3 
 O(Fragment=2)         13.67     19.22     18.04 
 H(Fragment=2)         13.65     19.75     17.25 
 H(Fragment=2)         13.73     19.85     18.75 
 O(Fragment=2)         22.2      13.26     21.29 
 H(Fragment=2)         22.03     14.14     21.63 
 H(Fragment=2)         21.68     12.68     21.85 
 O(Fragment=2)         23.55     19.17     14.71 
 H(Fragment=2)         24.03     18.38     14.96 
 H(Fragment=2)         23.45     19.1      13.76 
 O(Fragment=2)         15.39     24.67     18.54 
 H(Fragment=2)         14.88     25.35     18.1 
 H(Fragment=2)         14.97     23.85     18.29 
 O(Fragment=2)         18.29     21.59     27.13 
 H(Fragment=2)         17.34     21.44     27.1 
 H(Fragment=2)         18.56     21.57     26.21 
 O(Fragment=2)         18.57     15.4      14.54 
 H(Fragment=2)         19.16     16.13     14.72 
 H(Fragment=2)         17.73     15.69     14.89 
 O(Fragment=2)         15.26     18.26     25.08 
 H(Fragment=2)         16.08     18.74     25.16 
 H(Fragment=2)         14.81     18.67     24.35 
 O(Fragment=2)         25.45     22.98     16.41 
 H(Fragment=2)         24.58     23.39     16.43 
 H(Fragment=2)         25.28     22.05     16.52 
 O(Fragment=2)         16.27     15.45     16.37 
 H(Fragment=2)         16.21     14.5      16.48 
 H(Fragment=2)         15.73     15.8      17.08 
 O(Fragment=2)         20.71     26.26     16.68 
 H(Fragment=2)         21.56     25.81     16.66 
 H(Fragment=2)         20.08     25.6      16.38 
 O(Fragment=2)         26.02     19.84     22.91 
 H(Fragment=2)         26.41     20.67     22.63 
 H(Fragment=2)         26.14     19.82     23.86 
 O(Fragment=2)         21.36     22.11     27.12 
 H(Fragment=2)         21.68     21.92     26.23 
 H(Fragment=2)         20.54     21.63     27.18 
 O(Fragment=2)         26.5      22.43     21.56 
 H(Fragment=2)         27.12     23.15     21.47 
 H(Fragment=2)         25.78     22.79     22.07 
 O(Fragment=2)         16.21     13.31     19.07 
 H(Fragment=2)         16.46     14.13     19.49 
 H(Fragment=2)         17.03     12.82     18.98 
 O(Fragment=2)         17.63     13.23     21.85 
 H(Fragment=2)         16.82     12.86     22.21 
 H(Fragment=2)         17.86     13.93     22.46 
 O(Fragment=2)         25.02     24.77     19.54 
 H(Fragment=2)         25.29     24.87     20.45 
 H(Fragment=2)         25.79     25.01     19.03 
 O(Fragment=2)         15.25     25.67     22.72 
 H(Fragment=2)         15.13     26.29     21.99 
 H(Fragment=2)         15.66     24.91     22.32 
 O(Fragment=2)         25.03     16.79     16.03 
 H(Fragment=2)         25.48     17.46     16.55 
 H(Fragment=2)         25.25     15.97     16.47 
 O(Fragment=2)         26.79     21.37     18.92 
 H(Fragment=2)         26.75     21.93     19.7 
 H(Fragment=2)         26.49     21.93     18.21 
 O(Fragment=2)         14.71     23.02     24.83 
 H(Fragment=2)         15.2      23.19     24.03 
 H(Fragment=2)         14.54     23.89     25.19 
 O(Fragment=2)         25.11     14.74     23. 
 H(Fragment=2)         25.07     14.08     22.31 
 H(Fragment=2)         24.88     15.56     22.56 
 O(Fragment=2)         13.19     16.85     21.82 
 H(Fragment=2)         13.47     17.75     22.01 
 H(Fragment=2)         13.99     16.39     21.57 
 O(Fragment=2)         18.99     17.13     26.52 
 H(Fragment=2)         19.86     16.77     26.65 
 H(Fragment=2)         18.77     17.54     27.35 
 O(Fragment=2)         25.74     21.33     25.5 
 H(Fragment=2)         24.88     20.97     25.28 
 H(Fragment=2)         25.83     21.18     26.44 
 O(Fragment=2)         22.18     27.52     19.05 
 H(Fragment=2)         21.74     26.89     18.48 
 H(Fragment=2)         22.31     27.06     19.88 
 O(Fragment=2)         23.82     24.3      25.93 
 H(Fragment=2)         23.07     24.71     26.37 
 H(Fragment=2)         23.43     23.78     25.22 
 O(Fragment=2)         14.88     22.98     14.68 
 H(Fragment=2)         14.27     23.68     14.42 
 H(Fragment=2)         15.21     23.26     15.53 
 O(Fragment=2)         27.45     17.95     21.27 
 H(Fragment=2)         26.93     18.48     21.87 
 H(Fragment=2)         27.24     18.29     20.4 
 O(Fragment=2)         21.6      13.19     16.04 
 H(Fragment=2)         22.1      13.92     16.41 
 H(Fragment=2)         21.46     13.44     15.13 
 O(Fragment=2)         21.92     24.09     13.95 
 H(Fragment=2)         22.75     23.92     14.38 
 H(Fragment=2)         22.13     24.76     13.29 
 O(Fragment=2)         13.5      22.68     17.7 
 H(Fragment=2)         12.77     23.02     18.21 
 H(Fragment=2)         13.09     22.32     16.91 
 O(Fragment=2)         15.14     20.12     14.42 
 H(Fragment=2)         15.13     21.07     14.52 
 H(Fragment=2)         14.4      19.93     13.85 
 O(Fragment=2)         17.54     24.05     13.36 
 H(Fragment=2)         17.14     23.61     14.11 
 H(Fragment=2)         16.9      24.71     13.09 
 O(Fragment=2)         27.86     18.8      18.45 
 H(Fragment=2)         28.79     19.05     18.46 
 H(Fragment=2)         27.4      19.6      18.7 
 O(Fragment=2)         18.55     13.6      25.4 
 H(Fragment=2)         17.79     13.05     25.23 
 H(Fragment=2)         18.47     14.32     24.78 
 O(Fragment=2)         21.57     12.11     18.9 
 H(Fragment=2)         22.31     11.62     18.54 
 H(Fragment=2)         21.95     12.66     19.58 
 O(Fragment=2)         17.51     26.16     23.84 
 H(Fragment=2)         16.64     26.12     23.44 
 H(Fragment=2)         17.54     27.03     24.24 
 O(Fragment=2)         15.86     21.08     26.69 
 H(Fragment=2)         15.45     21.56     25.98 
 H(Fragment=2)         15.15     20.54     27.06 
 O(Fragment=2)         19.93     23.07     12.1 
 H(Fragment=2)         20.28     23.15     12.98 
 H(Fragment=2)         19.3      23.78     12.02 
 O(Fragment=2)         22.66     14.17     24.28 
 H(Fragment=2)         23.61     14.21     24.24 
 H(Fragment=2)         22.44     13.28     24. 
 O(Fragment=2)         19.4      18.93     12.33 
 H(Fragment=2)         19.66     19.63     11.73 
 H(Fragment=2)         18.44     18.91     12.27 
 O(Fragment=2)         21.34     16.79     13.02 
 H(Fragment=2)         22.1      17.16     12.58 
 H(Fragment=2)         20.59     17.14     12.54 
 O(Fragment=2)         17.98     12.88     15.87 
 H(Fragment=2)         18.17     13.78     15.59 
 H(Fragment=2)         17.33     12.57     15.24 
 O(Fragment=2)         15.57     16.22     13.71 
 H(Fragment=2)         14.72     16.66     13.71 
 H(Fragment=2)         15.75     16.05     14.64 
 O(Fragment=2)         16.44     18.35     12.38 
 H(Fragment=2)         16.38     17.48     12.78 
 H(Fragment=2)         16.27     18.96     13.09 
 O(Fragment=2)         20.35     11.5      22.06 
 H(Fragment=2)         19.84     12.3      21.92 
 H(Fragment=2)         19.78     10.95     22.6 
 O(Fragment=2)         18.83     12.19     18.61 
 H(Fragment=2)         18.59     12.05     17.69 
 H(Fragment=2)         19.77     12.04     18.65 
 O(Fragment=2)         22.26     18.64     28.1 
 H(Fragment=2)         22.38     19.48     27.67 
 H(Fragment=2)         22.85     18.05     27.63 
 O(Fragment=2)         19.08     28.5      17.95 
 H(Fragment=2)         18.76     27.84     18.56 
 H(Fragment=2)         19.76     28.05     17.45 
 O(Fragment=2)         13.28     13.87     19.48 
 H(Fragment=2)         13.84     13.28     19.98 
 H(Fragment=2)         13.86     14.58     19.21 
 O(Fragment=2)         11.76     16.89     17.42 
 H(Fragment=2)         12.65     16.76     17.74 
 H(Fragment=2)         11.21     16.8      18.2 
 O(Fragment=2)         29.17     21.02     20.59 
 H(Fragment=2)         29.1      21.9      20.96 
 H(Fragment=2)         28.31     20.85     20.21 
 O(Fragment=2)         15.63     14.01     23.99 
 H(Fragment=2)         15.65     13.51     24.8 
 H(Fragment=2)         14.83     13.73     23.55 
 O(Fragment=2)         12.56     20.89     15.69 
 H(Fragment=2)         13.25     21.16     15.08 
 H(Fragment=2)         12.2      20.09     15.3 
 O(Fragment=2)         19.42     26.18     26.51 
 H(Fragment=2)         20.23     25.69     26.66 
 H(Fragment=2)         19.41     26.34     25.57 
 O(Fragment=2)         16.91     22.2      11.4 
 H(Fragment=2)         17.51     22.21     12.15 
 H(Fragment=2)         16.18     22.76     11.67 
 O(Fragment=2)         20.93     14.19     13.7 
 H(Fragment=2)         19.98     14.18     13.71 
 H(Fragment=2)         21.17     14.94     13.16 
 O(Fragment=2)         23.54     21.52     11.54 
 H(Fragment=2)         23.58     22.42     11.21 
 H(Fragment=2)         22.7      21.48     12. 
 O(Fragment=2)         15.9      27.       15.14 
 H(Fragment=2)         16.01     26.11     15.48 
 H(Fragment=2)         16.34     26.99     14.29 
 O(Fragment=2)         25.71     26.05     22.18 
 H(Fragment=2)         26.65     26.18     22.05 
 H(Fragment=2)         25.64     25.79     23.1 
 O(Fragment=2)         23.68     28.04     21.37 
 H(Fragment=2)         24.14     28.57     20.72 
 H(Fragment=2)         24.27     27.31     21.55 
 O(Fragment=2)         24.99     12.54     21.32 
 H(Fragment=2)         24.05     12.4      21.42 
 H(Fragment=2)         25.37     12.24     22.14 
 O(Fragment=2)         10.91     21.61     18.73 
 H(Fragment=2)         11.35     20.9      19.2 
 H(Fragment=2)         10.88     21.33     17.82 
 O(Fragment=2)         26.19     24.76     24.6 
 H(Fragment=2)         26.95     24.51     25.12 
 H(Fragment=2)         25.44     24.51     25.14 
 O(Fragment=2)         22.99     18.71     11.89 
 H(Fragment=2)         23.89     18.42     11.8 
 H(Fragment=2)         23.01     19.64     11.69 
 O(Fragment=2)         11.9      22.03     24.33 
 H(Fragment=2)         12.09     22.88     23.94 
 H(Fragment=2)         12.76     21.7      24.61 
 O(Fragment=2)         13.27     15.61     25.35 
 H(Fragment=2)         14.04     16.15     25.18 
 H(Fragment=2)         12.83     15.54     24.5 
 O(Fragment=2)         26.27     16.78     25.27 
 H(Fragment=2)         26.23     15.88     24.97 
 H(Fragment=2)         27.2      16.97     25.34 
 O(Fragment=2)         26.26     21.21     12.8 
 H(Fragment=2)         25.36     21.29     13.1 
 H(Fragment=2)         26.45     20.27     12.84 
 O(Fragment=2)         26.83     14.41     20.37 
 H(Fragment=2)         27.06     14.35     19.44 
 H(Fragment=2)         26.25     13.67     20.52 
 O(Fragment=2)         28.26     18.69     15.79 
 H(Fragment=2)         29.11     18.26     15.64 
 H(Fragment=2)         28.06     18.49     16.7 
 O(Fragment=2)         12.29     24.73     22.59 
 H(Fragment=2)         12.31     24.86     21.64 
 H(Fragment=2)         13.19     24.88     22.87 
 O(Fragment=2)         21.04     13.1      26.46 
 H(Fragment=2)         21.54     13.39     25.7 
 H(Fragment=2)         20.14     13.38     26.28 
 O(Fragment=2)         18.16     24.34     28.32 
 H(Fragment=2)         18.47     25.16     27.94 
 H(Fragment=2)         18.76     23.68     27.97 
 O(Fragment=2)         14.41     27.3      20.57 
 H(Fragment=2)         15.1      27.42     19.92 
 H(Fragment=2)         13.6      27.43     20.09 
 O(Fragment=2)         24.14     25.73     14.42 
 H(Fragment=2)         24.82     25.66     13.75 
 H(Fragment=2)         24.46     26.41     15.02 
 O(Fragment=2)         27.31     24.52     15.07 
 H(Fragment=2)         28.02     24.17     15.61 
 H(Fragment=2)         26.57     23.95     15.25 
 O(Fragment=2)         20.66     16.11     28.96 
 H(Fragment=2)         21.16     16.68     28.37 
 H(Fragment=2)         20.69     16.56     29.8 
 O(Fragment=2)         17.97     21.36     29.71 
 H(Fragment=2)         18.83     21.01     29.95 
 H(Fragment=2)         18.02     21.49     28.76 
 O(Fragment=2)         10.48     18.98     22.85 
 H(Fragment=2)         10.23     19.7      23.43 
 H(Fragment=2)         11.2      19.33     22.32 
 O(Fragment=2)         24.45     28.58     18.2 
 H(Fragment=2)         24.82     28.26     17.38 
 H(Fragment=2)         23.57     28.21     18.23 
 O(Fragment=2)         11.88     24.17     19.69 
 H(Fragment=2)         11.32     24.91     19.46 
 H(Fragment=2)         11.32     23.4      19.59 
 O(Fragment=2)         23.97     14.97     12.8 
 H(Fragment=2)         23.1      14.8      13.16 
 H(Fragment=2)         24.23     14.14     12.4 
 O(Fragment=2)         23.87     21.86     28.84 
 H(Fragment=2)         23.15     22.22     28.31 
 H(Fragment=2)         23.43     21.35     29.52 
 O(Fragment=2)         17.76     10.36     20.15 
 H(Fragment=2)         18.33     10.98     19.69 
 H(Fragment=2)         18.17     10.26     21.01 
 O(Fragment=2)         11.33     15.67     19.93 
 H(Fragment=2)         11.95     14.97     19.7 
 H(Fragment=2)         11.72     16.09     20.69 
 O(Fragment=2)         14.67     13.08     16.62 
 H(Fragment=2)         14.78     12.79     17.52 
 H(Fragment=2)         13.89     12.63     16.31 
 O(Fragment=2)         28.58     21.51     24.33 
 H(Fragment=2)         28.76     20.6      24.57 
 H(Fragment=2)         27.75     21.71     24.75 
 
 NAtoms=    385 NQM=      385 NQMF=       0 NMMI=      0 NMMIF=      0
                NMic=       0 NMicF=      0.
                    Isotopes and Nuclear Properties:
 (Nuclear quadrupole moments (NQMom) in fm**2, nuclear magnetic moments (NMagM)
  in nuclear magnetons)

  Atom         1           2           3           4           5           6           7           8           9          10
 IAtWgt=          79          16           1           1          16           1           1          16           1           1
 AtmWgt=  78.9183361  15.9949146   1.0078250   1.0078250  15.9949146   1.0078250   1.0078250  15.9949146   1.0078250   1.0078250
 NucSpn=           3           0           1           1           0           1           1           0           1           1
 AtZEff=   0.0000000   0.0000000   0.0000000   0.0000000   0.0000000   0.0000000   0.0000000   0.0000000   0.0000000   0.0000000
 NQMom=   31.3000000   0.0000000   0.0000000   0.0000000   0.0000000   0.0000000   0.0000000   0.0000000   0.0000000   0.0000000
 NMagM=    2.1063990   0.0000000   2.7928460   2.7928460   0.0000000   2.7928460   2.7928460   0.0000000   2.7928460   2.7928460
 AtZNuc=  35.0000000   8.0000000   1.0000000   1.0000000   8.0000000   1.0000000   1.0000000   8.0000000   1.0000000   1.0000000

  Atom        11          12          13          14          15          16          17          18          19          20
 IAtWgt=          16           1           1          16           1           1          16           1           1          16
 AtmWgt=  15.9949146   1.0078250   1.0078250  15.9949146   1.0078250   1.0078250  15.9949146   1.0078250   1.0078250  15.9949146
 NucSpn=           0           1           1           0           1           1           0           1           1           0
 AtZEff=   0.0000000   0.0000000   0.0000000   0.0000000   0.0000000   0.0000000   0.0000000   0.0000000   0.0000000   0.0000000
 NQMom=    0.0000000   0.0000000   0.0000000   0.0000000   0.0000000   0.0000000   0.0000000   0.0000000   0.0000000   0.0000000
 NMagM=    0.0000000   2.7928460   2.7928460   0.0000000   2.7928460   2.7928460   0.0000000   2.7928460   2.7928460   0.0000000
 AtZNuc=   8.0000000   1.0000000   1.0000000   8.0000000   1.0000000   1.0000000   8.0000000   1.0000000   1.0000000   8.0000000

  Atom        21          22          23          24          25          26          27          28          29          30
 IAtWgt=           1           1          16           1           1          16           1           1          16           1
 AtmWgt=   1.0078250   1.0078250  15.9949146   1.0078250   1.0078250  15.9949146   1.0078250   1.0078250  15.9949146   1.0078250
 NucSpn=           1           1           0           1           1           0           1           1           0           1
 AtZEff=   0.0000000   0.0000000   0.0000000   0.0000000   0.0000000   0.0000000   0.0000000   0.0000000   0.0000000   0.0000000
 NQMom=    0.0000000   0.0000000   0.0000000   0.0000000   0.0000000   0.0000000   0.0000000   0.0000000   0.0000000   0.0000000
 NMagM=    2.7928460   2.7928460   0.0000000   2.7928460   2.7928460   0.0000000   2.7928460   2.7928460   0.0000000   2.7928460
 AtZNuc=   1.0000000   1.0000000   8.0000000   1.0000000   1.0000000   8.0000000   1.0000000   1.0000000   8.0000000   1.0000000

  Atom        31          32          33          34          35          36          37          38          39          40
 IAtWgt=           1          16           1           1          16           1           1          16           1           1
 AtmWgt=   1.0078250  15.9949146   1.0078250   1.0078250  15.9949146   1.0078250   1.0078250  15.9949146   1.0078250   1.0078250
 NucSpn=           1           0           1           1           0           1           1           0           1           1
 AtZEff=   0.0000000   0.0000000   0.0000000   0.0000000   0.0000000   0.0000000   0.0000000   0.0000000   0.0000000   0.0000000
 NQMom=    0.0000000   0.0000000   0.0000000   0.0000000   0.0000000   0.0000000   0.0000000   0.0000000   0.0000000   0.0000000
 NMagM=    2.7928460   0.0000000   2.7928460   2.7928460   0.0000000   2.7928460   2.7928460   0.0000000   2.7928460   2.7928460
 AtZNuc=   1.0000000   8.0000000   1.0000000   1.0000000   8.0000000   1.0000000   1.0000000   8.0000000   1.0000000   1.0000000

  Atom        41          42          43          44          45          46          47          48          49          50
 IAtWgt=          16           1           1          16           1           1          16           1           1          16
 AtmWgt=  15.9949146   1.0078250   1.0078250  15.9949146   1.0078250   1.0078250  15.9949146   1.0078250   1.0078250  15.9949146
 NucSpn=           0           1           1           0           1           1           0           1           1           0
 AtZEff=   0.0000000   0.0000000   0.0000000   0.0000000   0.0000000   0.0000000   0.0000000   0.0000000   0.0000000   0.0000000
 NQMom=    0.0000000   0.0000000   0.0000000   0.0000000   0.0000000   0.0000000   0.0000000   0.0000000   0.0000000   0.0000000
 NMagM=    0.0000000   2.7928460   2.7928460   0.0000000   2.7928460   2.7928460   0.0000000   2.7928460   2.7928460   0.0000000
 AtZNuc=   8.0000000   1.0000000   1.0000000   8.0000000   1.0000000   1.0000000   8.0000000   1.0000000   1.0000000   8.0000000

  Atom        51          52          53          54          55          56          57          58          59          60
 IAtWgt=           1           1          16           1           1          16           1           1          16           1
 AtmWgt=   1.0078250   1.0078250  15.9949146   1.0078250   1.0078250  15.9949146   1.0078250   1.0078250  15.9949146   1.0078250
 NucSpn=           1           1           0           1           1           0           1           1           0           1
 AtZEff=   0.0000000   0.0000000   0.0000000   0.0000000   0.0000000   0.0000000   0.0000000   0.0000000   0.0000000   0.0000000
 NQMom=    0.0000000   0.0000000   0.0000000   0.0000000   0.0000000   0.0000000   0.0000000   0.0000000   0.0000000   0.0000000
 NMagM=    2.7928460   2.7928460   0.0000000   2.7928460   2.7928460   0.0000000   2.7928460   2.7928460   0.0000000   2.7928460
 AtZNuc=   1.0000000   1.0000000   8.0000000   1.0000000   1.0000000   8.0000000   1.0000000   1.0000000   8.0000000   1.0000000

  Atom        61          62          63          64          65          66          67          68          69          70
 IAtWgt=           1          16           1           1          16           1           1          16           1           1
 AtmWgt=   1.0078250  15.9949146   1.0078250   1.0078250  15.9949146   1.0078250   1.0078250  15.9949146   1.0078250   1.0078250
 NucSpn=           1           0           1           1           0           1           1           0           1           1
 AtZEff=   0.0000000   0.0000000   0.0000000   0.0000000   0.0000000   0.0000000   0.0000000   0.0000000   0.0000000   0.0000000
 NQMom=    0.0000000   0.0000000   0.0000000   0.0000000   0.0000000   0.0000000   0.0000000   0.0000000   0.0000000   0.0000000
 NMagM=    2.7928460   0.0000000   2.7928460   2.7928460   0.0000000   2.7928460   2.7928460   0.0000000   2.7928460   2.7928460
 AtZNuc=   1.0000000   8.0000000   1.0000000   1.0000000   8.0000000   1.0000000   1.0000000   8.0000000   1.0000000   1.0000000

  Atom        71          72          73          74          75          76          77          78          79          80
 IAtWgt=          16           1           1          16           1           1          16           1           1          16
 AtmWgt=  15.9949146   1.0078250   1.0078250  15.9949146   1.0078250   1.0078250  15.9949146   1.0078250   1.0078250  15.9949146
 NucSpn=           0           1           1           0           1           1           0           1           1           0
 AtZEff=   0.0000000   0.0000000   0.0000000   0.0000000   0.0000000   0.0000000   0.0000000   0.0000000   0.0000000   0.0000000
 NQMom=    0.0000000   0.0000000   0.0000000   0.0000000   0.0000000   0.0000000   0.0000000   0.0000000   0.0000000   0.0000000
 NMagM=    0.0000000   2.7928460   2.7928460   0.0000000   2.7928460   2.7928460   0.0000000   2.7928460   2.7928460   0.0000000
 AtZNuc=   8.0000000   1.0000000   1.0000000   8.0000000   1.0000000   1.0000000   8.0000000   1.0000000   1.0000000   8.0000000

  Atom        81          82          83          84          85          86          87          88          89          90
 IAtWgt=           1           1          16           1           1          16           1           1          16           1
 AtmWgt=   1.0078250   1.0078250  15.9949146   1.0078250   1.0078250  15.9949146   1.0078250   1.0078250  15.9949146   1.0078250
 NucSpn=           1           1           0           1           1           0           1           1           0           1
 AtZEff=   0.0000000   0.0000000   0.0000000   0.0000000   0.0000000   0.0000000   0.0000000   0.0000000   0.0000000   0.0000000
 NQMom=    0.0000000   0.0000000   0.0000000   0.0000000   0.0000000   0.0000000   0.0000000   0.0000000   0.0000000   0.0000000
 NMagM=    2.7928460   2.7928460   0.0000000   2.7928460   2.7928460   0.0000000   2.7928460   2.7928460   0.0000000   2.7928460
 AtZNuc=   1.0000000   1.0000000   8.0000000   1.0000000   1.0000000   8.0000000   1.0000000   1.0000000   8.0000000   1.0000000

  Atom        91          92          93          94          95          96          97          98          99         100
 IAtWgt=           1          16           1           1          16           1           1          16           1           1
 AtmWgt=   1.0078250  15.9949146   1.0078250   1.0078250  15.9949146   1.0078250   1.0078250  15.9949146   1.0078250   1.0078250
 NucSpn=           1           0           1           1           0           1           1           0           1           1
 AtZEff=   0.0000000   0.0000000   0.0000000   0.0000000   0.0000000   0.0000000   0.0000000   0.0000000   0.0000000   0.0000000
 NQMom=    0.0000000   0.0000000   0.0000000   0.0000000   0.0000000   0.0000000   0.0000000   0.0000000   0.0000000   0.0000000
 NMagM=    2.7928460   0.0000000   2.7928460   2.7928460   0.0000000   2.7928460   2.7928460   0.0000000   2.7928460   2.7928460
 AtZNuc=   1.0000000   8.0000000   1.0000000   1.0000000   8.0000000   1.0000000   1.0000000   8.0000000   1.0000000   1.0000000

  Atom       101         102         103         104         105         106         107         108         109         110
 IAtWgt=          16           1           1          16           1           1          16           1           1          16
 AtmWgt=  15.9949146   1.0078250   1.0078250  15.9949146   1.0078250   1.0078250  15.9949146   1.0078250   1.0078250  15.9949146
 NucSpn=           0           1           1           0           1           1           0           1           1           0
 AtZEff=   0.0000000   0.0000000   0.0000000   0.0000000   0.0000000   0.0000000   0.0000000   0.0000000   0.0000000   0.0000000
 NQMom=    0.0000000   0.0000000   0.0000000   0.0000000   0.0000000   0.0000000   0.0000000   0.0000000   0.0000000   0.0000000
 NMagM=    0.0000000   2.7928460   2.7928460   0.0000000   2.7928460   2.7928460   0.0000000   2.7928460   2.7928460   0.0000000
 AtZNuc=   8.0000000   1.0000000   1.0000000   8.0000000   1.0000000   1.0000000   8.0000000   1.0000000   1.0000000   8.0000000

  Atom       111         112         113         114         115         116         117         118         119         120
 IAtWgt=           1           1          16           1           1          16           1           1          16           1
 AtmWgt=   1.0078250   1.0078250  15.9949146   1.0078250   1.0078250  15.9949146   1.0078250   1.0078250  15.9949146   1.0078250
 NucSpn=           1           1           0           1           1           0           1           1           0           1
 AtZEff=   0.0000000   0.0000000   0.0000000   0.0000000   0.0000000   0.0000000   0.0000000   0.0000000   0.0000000   0.0000000
 NQMom=    0.0000000   0.0000000   0.0000000   0.0000000   0.0000000   0.0000000   0.0000000   0.0000000   0.0000000   0.0000000
 NMagM=    2.7928460   2.7928460   0.0000000   2.7928460   2.7928460   0.0000000   2.7928460   2.7928460   0.0000000   2.7928460
 AtZNuc=   1.0000000   1.0000000   8.0000000   1.0000000   1.0000000   8.0000000   1.0000000   1.0000000   8.0000000   1.0000000

  Atom       121         122         123         124         125         126         127         128         129         130
 IAtWgt=           1          16           1           1          16           1           1          16           1           1
 AtmWgt=   1.0078250  15.9949146   1.0078250   1.0078250  15.9949146   1.0078250   1.0078250  15.9949146   1.0078250   1.0078250
 NucSpn=           1           0           1           1           0           1           1           0           1           1
 AtZEff=   0.0000000   0.0000000   0.0000000   0.0000000   0.0000000   0.0000000   0.0000000   0.0000000   0.0000000   0.0000000
 NQMom=    0.0000000   0.0000000   0.0000000   0.0000000   0.0000000   0.0000000   0.0000000   0.0000000   0.0000000   0.0000000
 NMagM=    2.7928460   0.0000000   2.7928460   2.7928460   0.0000000   2.7928460   2.7928460   0.0000000   2.7928460   2.7928460
 AtZNuc=   1.0000000   8.0000000   1.0000000   1.0000000   8.0000000   1.0000000   1.0000000   8.0000000   1.0000000   1.0000000

  Atom       131         132         133         134         135         136         137         138         139         140
 IAtWgt=          16           1           1          16           1           1          16           1           1          16
 AtmWgt=  15.9949146   1.0078250   1.0078250  15.9949146   1.0078250   1.0078250  15.9949146   1.0078250   1.0078250  15.9949146
 NucSpn=           0           1           1           0           1           1           0           1           1           0
 AtZEff=   0.0000000   0.0000000   0.0000000   0.0000000   0.0000000   0.0000000   0.0000000   0.0000000   0.0000000   0.0000000
 NQMom=    0.0000000   0.0000000   0.0000000   0.0000000   0.0000000   0.0000000   0.0000000   0.0000000   0.0000000   0.0000000
 NMagM=    0.0000000   2.7928460   2.7928460   0.0000000   2.7928460   2.7928460   0.0000000   2.7928460   2.7928460   0.0000000
 AtZNuc=   8.0000000   1.0000000   1.0000000   8.0000000   1.0000000   1.0000000   8.0000000   1.0000000   1.0000000   8.0000000

  Atom       141         142         143         144         145         146         147         148         149         150
 IAtWgt=           1           1          16           1           1          16           1           1          16           1
 AtmWgt=   1.0078250   1.0078250  15.9949146   1.0078250   1.0078250  15.9949146   1.0078250   1.0078250  15.9949146   1.0078250
 NucSpn=           1           1           0           1           1           0           1           1           0           1
 AtZEff=   0.0000000   0.0000000   0.0000000   0.0000000   0.0000000   0.0000000   0.0000000   0.0000000   0.0000000   0.0000000
 NQMom=    0.0000000   0.0000000   0.0000000   0.0000000   0.0000000   0.0000000   0.0000000   0.0000000   0.0000000   0.0000000
 NMagM=    2.7928460   2.7928460   0.0000000   2.7928460   2.7928460   0.0000000   2.7928460   2.7928460   0.0000000   2.7928460
 AtZNuc=   1.0000000   1.0000000   8.0000000   1.0000000   1.0000000   8.0000000   1.0000000   1.0000000   8.0000000   1.0000000

  Atom       151         152         153         154         155         156         157         158         159         160
 IAtWgt=           1          16           1           1          16           1           1          16           1           1
 AtmWgt=   1.0078250  15.9949146   1.0078250   1.0078250  15.9949146   1.0078250   1.0078250  15.9949146   1.0078250   1.0078250
 NucSpn=           1           0           1           1           0           1           1           0           1           1
 AtZEff=   0.0000000   0.0000000   0.0000000   0.0000000   0.0000000   0.0000000   0.0000000   0.0000000   0.0000000   0.0000000
 NQMom=    0.0000000   0.0000000   0.0000000   0.0000000   0.0000000   0.0000000   0.0000000   0.0000000   0.0000000   0.0000000
 NMagM=    2.7928460   0.0000000   2.7928460   2.7928460   0.0000000   2.7928460   2.7928460   0.0000000   2.7928460   2.7928460
 AtZNuc=   1.0000000   8.0000000   1.0000000   1.0000000   8.0000000   1.0000000   1.0000000   8.0000000   1.0000000   1.0000000

  Atom       161         162         163         164         165         166         167         168         169         170
 IAtWgt=          16           1           1          16           1           1          16           1           1          16
 AtmWgt=  15.9949146   1.0078250   1.0078250  15.9949146   1.0078250   1.0078250  15.9949146   1.0078250   1.0078250  15.9949146
 NucSpn=           0           1           1           0           1           1           0           1           1           0
 AtZEff=   0.0000000   0.0000000   0.0000000   0.0000000   0.0000000   0.0000000   0.0000000   0.0000000   0.0000000   0.0000000
 NQMom=    0.0000000   0.0000000   0.0000000   0.0000000   0.0000000   0.0000000   0.0000000   0.0000000   0.0000000   0.0000000
 NMagM=    0.0000000   2.7928460   2.7928460   0.0000000   2.7928460   2.7928460   0.0000000   2.7928460   2.7928460   0.0000000
 AtZNuc=   8.0000000   1.0000000   1.0000000   8.0000000   1.0000000   1.0000000   8.0000000   1.0000000   1.0000000   8.0000000

  Atom       171         172         173         174         175         176         177         178         179         180
 IAtWgt=           1           1          16           1           1          16           1           1          16           1
 AtmWgt=   1.0078250   1.0078250  15.9949146   1.0078250   1.0078250  15.9949146   1.0078250   1.0078250  15.9949146   1.0078250
 NucSpn=           1           1           0           1           1           0           1           1           0           1
 AtZEff=   0.0000000   0.0000000   0.0000000   0.0000000   0.0000000   0.0000000   0.0000000   0.0000000   0.0000000   0.0000000
 NQMom=    0.0000000   0.0000000   0.0000000   0.0000000   0.0000000   0.0000000   0.0000000   0.0000000   0.0000000   0.0000000
 NMagM=    2.7928460   2.7928460   0.0000000   2.7928460   2.7928460   0.0000000   2.7928460   2.7928460   0.0000000   2.7928460
 AtZNuc=   1.0000000   1.0000000   8.0000000   1.0000000   1.0000000   8.0000000   1.0000000   1.0000000   8.0000000   1.0000000

  Atom       181         182         183         184         185         186         187         188         189         190
 IAtWgt=           1          16           1           1          16           1           1          16           1           1
 AtmWgt=   1.0078250  15.9949146   1.0078250   1.0078250  15.9949146   1.0078250   1.0078250  15.9949146   1.0078250   1.0078250
 NucSpn=           1           0           1           1           0           1           1           0           1           1
 AtZEff=   0.0000000   0.0000000   0.0000000   0.0000000   0.0000000   0.0000000   0.0000000   0.0000000   0.0000000   0.0000000
 NQMom=    0.0000000   0.0000000   0.0000000   0.0000000   0.0000000   0.0000000   0.0000000   0.0000000   0.0000000   0.0000000
 NMagM=    2.7928460   0.0000000   2.7928460   2.7928460   0.0000000   2.7928460   2.7928460   0.0000000   2.7928460   2.7928460
 AtZNuc=   1.0000000   8.0000000   1.0000000   1.0000000   8.0000000   1.0000000   1.0000000   8.0000000   1.0000000   1.0000000

  Atom       191         192         193         194         195         196         197         198         199         200
 IAtWgt=          16           1           1          16           1           1          16           1           1          16
 AtmWgt=  15.9949146   1.0078250   1.0078250  15.9949146   1.0078250   1.0078250  15.9949146   1.0078250   1.0078250  15.9949146
 NucSpn=           0           1           1           0           1           1           0           1           1           0
 AtZEff=   0.0000000   0.0000000   0.0000000   0.0000000   0.0000000   0.0000000   0.0000000   0.0000000   0.0000000   0.0000000
 NQMom=    0.0000000   0.0000000   0.0000000   0.0000000   0.0000000   0.0000000   0.0000000   0.0000000   0.0000000   0.0000000
 NMagM=    0.0000000   2.7928460   2.7928460   0.0000000   2.7928460   2.7928460   0.0000000   2.7928460   2.7928460   0.0000000
 AtZNuc=   8.0000000   1.0000000   1.0000000   8.0000000   1.0000000   1.0000000   8.0000000   1.0000000   1.0000000   8.0000000

  Atom       201         202         203         204         205         206         207         208         209         210
 IAtWgt=           1           1          16           1           1          16           1           1          16           1
 AtmWgt=   1.0078250   1.0078250  15.9949146   1.0078250   1.0078250  15.9949146   1.0078250   1.0078250  15.9949146   1.0078250
 NucSpn=           1           1           0           1           1           0           1           1           0           1
 AtZEff=   0.0000000   0.0000000   0.0000000   0.0000000   0.0000000   0.0000000   0.0000000   0.0000000   0.0000000   0.0000000
 NQMom=    0.0000000   0.0000000   0.0000000   0.0000000   0.0000000   0.0000000   0.0000000   0.0000000   0.0000000   0.0000000
 NMagM=    2.7928460   2.7928460   0.0000000   2.7928460   2.7928460   0.0000000   2.7928460   2.7928460   0.0000000   2.7928460
 AtZNuc=   1.0000000   1.0000000   8.0000000   1.0000000   1.0000000   8.0000000   1.0000000   1.0000000   8.0000000   1.0000000

  Atom       211         212         213         214         215         216         217         218         219         220
 IAtWgt=           1          16           1           1          16           1           1          16           1           1
 AtmWgt=   1.0078250  15.9949146   1.0078250   1.0078250  15.9949146   1.0078250   1.0078250  15.9949146   1.0078250   1.0078250
 NucSpn=           1           0           1           1           0           1           1           0           1           1
 AtZEff=   0.0000000   0.0000000   0.0000000   0.0000000   0.0000000   0.0000000   0.0000000   0.0000000   0.0000000   0.0000000
 NQMom=    0.0000000   0.0000000   0.0000000   0.0000000   0.0000000   0.0000000   0.0000000   0.0000000   0.0000000   0.0000000
 NMagM=    2.7928460   0.0000000   2.7928460   2.7928460   0.0000000   2.7928460   2.7928460   0.0000000   2.7928460   2.7928460
 AtZNuc=   1.0000000   8.0000000   1.0000000   1.0000000   8.0000000   1.0000000   1.0000000   8.0000000   1.0000000   1.0000000

  Atom       221         222         223         224         225         226         227         228         229         230
 IAtWgt=          16           1           1          16           1           1          16           1           1          16
 AtmWgt=  15.9949146   1.0078250   1.0078250  15.9949146   1.0078250   1.0078250  15.9949146   1.0078250   1.0078250  15.9949146
 NucSpn=           0           1           1           0           1           1           0           1           1           0
 AtZEff=   0.0000000   0.0000000   0.0000000   0.0000000   0.0000000   0.0000000   0.0000000   0.0000000   0.0000000   0.0000000
 NQMom=    0.0000000   0.0000000   0.0000000   0.0000000   0.0000000   0.0000000   0.0000000   0.0000000   0.0000000   0.0000000
 NMagM=    0.0000000   2.7928460   2.7928460   0.0000000   2.7928460   2.7928460   0.0000000   2.7928460   2.7928460   0.0000000
 AtZNuc=   8.0000000   1.0000000   1.0000000   8.0000000   1.0000000   1.0000000   8.0000000   1.0000000   1.0000000   8.0000000

  Atom       231         232         233         234         235         236         237         238         239         240
 IAtWgt=           1           1          16           1           1          16           1           1          16           1
 AtmWgt=   1.0078250   1.0078250  15.9949146   1.0078250   1.0078250  15.9949146   1.0078250   1.0078250  15.9949146   1.0078250
 NucSpn=           1           1           0           1           1           0           1           1           0           1
 AtZEff=   0.0000000   0.0000000   0.0000000   0.0000000   0.0000000   0.0000000   0.0000000   0.0000000   0.0000000   0.0000000
 NQMom=    0.0000000   0.0000000   0.0000000   0.0000000   0.0000000   0.0000000   0.0000000   0.0000000   0.0000000   0.0000000
 NMagM=    2.7928460   2.7928460   0.0000000   2.7928460   2.7928460   0.0000000   2.7928460   2.7928460   0.0000000   2.7928460
 AtZNuc=   1.0000000   1.0000000   8.0000000   1.0000000   1.0000000   8.0000000   1.0000000   1.0000000   8.0000000   1.0000000

  Atom       241         242         243         244         245         246         247         248         249         250
 IAtWgt=           1          16           1           1          16           1           1          16           1           1
 AtmWgt=   1.0078250  15.9949146   1.0078250   1.0078250  15.9949146   1.0078250   1.0078250  15.9949146   1.0078250   1.0078250
 NucSpn=           1           0           1           1           0           1           1           0           1           1
 AtZEff=   0.0000000   0.0000000   0.0000000   0.0000000   0.0000000   0.0000000   0.0000000   0.0000000   0.0000000   0.0000000
 NQMom=    0.0000000   0.0000000   0.0000000   0.0000000   0.0000000   0.0000000   0.0000000   0.0000000   0.0000000   0.0000000
 NMagM=    2.7928460   0.0000000   2.7928460   2.7928460   0.0000000   2.7928460   2.7928460   0.0000000   2.7928460   2.7928460
 AtZNuc=   1.0000000   8.0000000   1.0000000   1.0000000   8.0000000   1.0000000   1.0000000   8.0000000   1.0000000   1.0000000

  Atom       251         252         253         254         255         256         257         258         259         260
 IAtWgt=          16           1           1          16           1           1          16           1           1          16
 AtmWgt=  15.9949146   1.0078250   1.0078250  15.9949146   1.0078250   1.0078250  15.9949146   1.0078250   1.0078250  15.9949146
 NucSpn=           0           1           1           0           1           1           0           1           1           0
 AtZEff=   0.0000000   0.0000000   0.0000000   0.0000000   0.0000000   0.0000000   0.0000000   0.0000000   0.0000000   0.0000000
 NQMom=    0.0000000   0.0000000   0.0000000   0.0000000   0.0000000   0.0000000   0.0000000   0.0000000   0.0000000   0.0000000
 NMagM=    0.0000000   2.7928460   2.7928460   0.0000000   2.7928460   2.7928460   0.0000000   2.7928460   2.7928460   0.0000000
 AtZNuc=   8.0000000   1.0000000   1.0000000   8.0000000   1.0000000   1.0000000   8.0000000   1.0000000   1.0000000   8.0000000

  Atom       261         262         263         264         265         266         267         268         269         270
 IAtWgt=           1           1          16           1           1          16           1           1          16           1
 AtmWgt=   1.0078250   1.0078250  15.9949146   1.0078250   1.0078250  15.9949146   1.0078250   1.0078250  15.9949146   1.0078250
 NucSpn=           1           1           0           1           1           0           1           1           0           1
 AtZEff=   0.0000000   0.0000000   0.0000000   0.0000000   0.0000000   0.0000000   0.0000000   0.0000000   0.0000000   0.0000000
 NQMom=    0.0000000   0.0000000   0.0000000   0.0000000   0.0000000   0.0000000   0.0000000   0.0000000   0.0000000   0.0000000
 NMagM=    2.7928460   2.7928460   0.0000000   2.7928460   2.7928460   0.0000000   2.7928460   2.7928460   0.0000000   2.7928460
 AtZNuc=   1.0000000   1.0000000   8.0000000   1.0000000   1.0000000   8.0000000   1.0000000   1.0000000   8.0000000   1.0000000

  Atom       271         272         273         274         275         276         277         278         279         280
 IAtWgt=           1          16           1           1          16           1           1          16           1           1
 AtmWgt=   1.0078250  15.9949146   1.0078250   1.0078250  15.9949146   1.0078250   1.0078250  15.9949146   1.0078250   1.0078250
 NucSpn=           1           0           1           1           0           1           1           0           1           1
 AtZEff=   0.0000000   0.0000000   0.0000000   0.0000000   0.0000000   0.0000000   0.0000000   0.0000000   0.0000000   0.0000000
 NQMom=    0.0000000   0.0000000   0.0000000   0.0000000   0.0000000   0.0000000   0.0000000   0.0000000   0.0000000   0.0000000
 NMagM=    2.7928460   0.0000000   2.7928460   2.7928460   0.0000000   2.7928460   2.7928460   0.0000000   2.7928460   2.7928460
 AtZNuc=   1.0000000   8.0000000   1.0000000   1.0000000   8.0000000   1.0000000   1.0000000   8.0000000   1.0000000   1.0000000

  Atom       281         282         283         284         285         286         287         288         289         290
 IAtWgt=          16           1           1          16           1           1          16           1           1          16
 AtmWgt=  15.9949146   1.0078250   1.0078250  15.9949146   1.0078250   1.0078250  15.9949146   1.0078250   1.0078250  15.9949146
 NucSpn=           0           1           1           0           1           1           0           1           1           0
 AtZEff=   0.0000000   0.0000000   0.0000000   0.0000000   0.0000000   0.0000000   0.0000000   0.0000000   0.0000000   0.0000000
 NQMom=    0.0000000   0.0000000   0.0000000   0.0000000   0.0000000   0.0000000   0.0000000   0.0000000   0.0000000   0.0000000
 NMagM=    0.0000000   2.7928460   2.7928460   0.0000000   2.7928460   2.7928460   0.0000000   2.7928460   2.7928460   0.0000000
 AtZNuc=   8.0000000   1.0000000   1.0000000   8.0000000   1.0000000   1.0000000   8.0000000   1.0000000   1.0000000   8.0000000

  Atom       291         292         293         294         295         296         297         298         299         300
 IAtWgt=           1           1          16           1           1          16           1           1          16           1
 AtmWgt=   1.0078250   1.0078250  15.9949146   1.0078250   1.0078250  15.9949146   1.0078250   1.0078250  15.9949146   1.0078250
 NucSpn=           1           1           0           1           1           0           1           1           0           1
 AtZEff=   0.0000000   0.0000000   0.0000000   0.0000000   0.0000000   0.0000000   0.0000000   0.0000000   0.0000000   0.0000000
 NQMom=    0.0000000   0.0000000   0.0000000   0.0000000   0.0000000   0.0000000   0.0000000   0.0000000   0.0000000   0.0000000
 NMagM=    2.7928460   2.7928460   0.0000000   2.7928460   2.7928460   0.0000000   2.7928460   2.7928460   0.0000000   2.7928460
 AtZNuc=   1.0000000   1.0000000   8.0000000   1.0000000   1.0000000   8.0000000   1.0000000   1.0000000   8.0000000   1.0000000

  Atom       301         302         303         304         305         306         307         308         309         310
 IAtWgt=           1          16           1           1          16           1           1          16           1           1
 AtmWgt=   1.0078250  15.9949146   1.0078250   1.0078250  15.9949146   1.0078250   1.0078250  15.9949146   1.0078250   1.0078250
 NucSpn=           1           0           1           1           0           1           1           0           1           1
 AtZEff=   0.0000000   0.0000000   0.0000000   0.0000000   0.0000000   0.0000000   0.0000000   0.0000000   0.0000000   0.0000000
 NQMom=    0.0000000   0.0000000   0.0000000   0.0000000   0.0000000   0.0000000   0.0000000   0.0000000   0.0000000   0.0000000
 NMagM=    2.7928460   0.0000000   2.7928460   2.7928460   0.0000000   2.7928460   2.7928460   0.0000000   2.7928460   2.7928460
 AtZNuc=   1.0000000   8.0000000   1.0000000   1.0000000   8.0000000   1.0000000   1.0000000   8.0000000   1.0000000   1.0000000

  Atom       311         312         313         314         315         316         317         318         319         320
 IAtWgt=          16           1           1          16           1           1          16           1           1          16
 AtmWgt=  15.9949146   1.0078250   1.0078250  15.9949146   1.0078250   1.0078250  15.9949146   1.0078250   1.0078250  15.9949146
 NucSpn=           0           1           1           0           1           1           0           1           1           0
 AtZEff=   0.0000000   0.0000000   0.0000000   0.0000000   0.0000000   0.0000000   0.0000000   0.0000000   0.0000000   0.0000000
 NQMom=    0.0000000   0.0000000   0.0000000   0.0000000   0.0000000   0.0000000   0.0000000   0.0000000   0.0000000   0.0000000
 NMagM=    0.0000000   2.7928460   2.7928460   0.0000000   2.7928460   2.7928460   0.0000000   2.7928460   2.7928460   0.0000000
 AtZNuc=   8.0000000   1.0000000   1.0000000   8.0000000   1.0000000   1.0000000   8.0000000   1.0000000   1.0000000   8.0000000

  Atom       321         322         323         324         325         326         327         328         329         330
 IAtWgt=           1           1          16           1           1          16           1           1          16           1
 AtmWgt=   1.0078250   1.0078250  15.9949146   1.0078250   1.0078250  15.9949146   1.0078250   1.0078250  15.9949146   1.0078250
 NucSpn=           1           1           0           1           1           0           1           1           0           1
 AtZEff=   0.0000000   0.0000000   0.0000000   0.0000000   0.0000000   0.0000000   0.0000000   0.0000000   0.0000000   0.0000000
 NQMom=    0.0000000   0.0000000   0.0000000   0.0000000   0.0000000   0.0000000   0.0000000   0.0000000   0.0000000   0.0000000
 NMagM=    2.7928460   2.7928460   0.0000000   2.7928460   2.7928460   0.0000000   2.7928460   2.7928460   0.0000000   2.7928460
 AtZNuc=   1.0000000   1.0000000   8.0000000   1.0000000   1.0000000   8.0000000   1.0000000   1.0000000   8.0000000   1.0000000

  Atom       331         332         333         334         335         336         337         338         339         340
 IAtWgt=           1          16           1           1          16           1           1          16           1           1
 AtmWgt=   1.0078250  15.9949146   1.0078250   1.0078250  15.9949146   1.0078250   1.0078250  15.9949146   1.0078250   1.0078250
 NucSpn=           1           0           1           1           0           1           1           0           1           1
 AtZEff=   0.0000000   0.0000000   0.0000000   0.0000000   0.0000000   0.0000000   0.0000000   0.0000000   0.0000000   0.0000000
 NQMom=    0.0000000   0.0000000   0.0000000   0.0000000   0.0000000   0.0000000   0.0000000   0.0000000   0.0000000   0.0000000
 NMagM=    2.7928460   0.0000000   2.7928460   2.7928460   0.0000000   2.7928460   2.7928460   0.0000000   2.7928460   2.7928460
 AtZNuc=   1.0000000   8.0000000   1.0000000   1.0000000   8.0000000   1.0000000   1.0000000   8.0000000   1.0000000   1.0000000

  Atom       341         342         343         344         345         346         347         348         349         350
 IAtWgt=          16           1           1          16           1           1          16           1           1          16
 AtmWgt=  15.9949146   1.0078250   1.0078250  15.9949146   1.0078250   1.0078250  15.9949146   1.0078250   1.0078250  15.9949146
 NucSpn=           0           1           1           0           1           1           0           1           1           0
 AtZEff=   0.0000000   0.0000000   0.0000000   0.0000000   0.0000000   0.0000000   0.0000000   0.0000000   0.0000000   0.0000000
 NQMom=    0.0000000   0.0000000   0.0000000   0.0000000   0.0000000   0.0000000   0.0000000   0.0000000   0.0000000   0.0000000
 NMagM=    0.0000000   2.7928460   2.7928460   0.0000000   2.7928460   2.7928460   0.0000000   2.7928460   2.7928460   0.0000000
 AtZNuc=   8.0000000   1.0000000   1.0000000   8.0000000   1.0000000   1.0000000   8.0000000   1.0000000   1.0000000   8.0000000

  Atom       351         352         353         354         355         356         357         358         359         360
 IAtWgt=           1           1          16           1           1          16           1           1          16           1
 AtmWgt=   1.0078250   1.0078250  15.9949146   1.0078250   1.0078250  15.9949146   1.0078250   1.0078250  15.9949146   1.0078250
 NucSpn=           1           1           0           1           1           0           1           1           0           1
 AtZEff=   0.0000000   0.0000000   0.0000000   0.0000000   0.0000000   0.0000000   0.0000000   0.0000000   0.0000000   0.0000000
 NQMom=    0.0000000   0.0000000   0.0000000   0.0000000   0.0000000   0.0000000   0.0000000   0.0000000   0.0000000   0.0000000
 NMagM=    2.7928460   2.7928460   0.0000000   2.7928460   2.7928460   0.0000000   2.7928460   2.7928460   0.0000000   2.7928460
 AtZNuc=   1.0000000   1.0000000   8.0000000   1.0000000   1.0000000   8.0000000   1.0000000   1.0000000   8.0000000   1.0000000

  Atom       361         362         363         364         365         366         367         368         369         370
 IAtWgt=           1          16           1           1          16           1           1          16           1           1
 AtmWgt=   1.0078250  15.9949146   1.0078250   1.0078250  15.9949146   1.0078250   1.0078250  15.9949146   1.0078250   1.0078250
 NucSpn=           1           0           1           1           0           1           1           0           1           1
 AtZEff=   0.0000000   0.0000000   0.0000000   0.0000000   0.0000000   0.0000000   0.0000000   0.0000000   0.0000000   0.0000000
 NQMom=    0.0000000   0.0000000   0.0000000   0.0000000   0.0000000   0.0000000   0.0000000   0.0000000   0.0000000   0.0000000
 NMagM=    2.7928460   0.0000000   2.7928460   2.7928460   0.0000000   2.7928460   2.7928460   0.0000000   2.7928460   2.7928460
 AtZNuc=   1.0000000   8.0000000   1.0000000   1.0000000   8.0000000   1.0000000   1.0000000   8.0000000   1.0000000   1.0000000

  Atom       371         372         373         374         375         376         377         378         379         380
 IAtWgt=          16           1           1          16           1           1          16           1           1          16
 AtmWgt=  15.9949146   1.0078250   1.0078250  15.9949146   1.0078250   1.0078250  15.9949146   1.0078250   1.0078250  15.9949146
 NucSpn=           0           1           1           0           1           1           0           1           1           0
 AtZEff=   0.0000000   0.0000000   0.0000000   0.0000000   0.0000000   0.0000000   0.0000000   0.0000000   0.0000000   0.0000000
 NQMom=    0.0000000   0.0000000   0.0000000   0.0000000   0.0000000   0.0000000   0.0000000   0.0000000   0.0000000   0.0000000
 NMagM=    0.0000000   2.7928460   2.7928460   0.0000000   2.7928460   2.7928460   0.0000000   2.7928460   2.7928460   0.0000000
 AtZNuc=   8.0000000   1.0000000   1.0000000   8.0000000   1.0000000   1.0000000   8.0000000   1.0000000   1.0000000   8.0000000

  Atom       381         382         383         384         385
 IAtWgt=           1           1          16           1           1
 AtmWgt=   1.0078250   1.0078250  15.9949146   1.0078250   1.0078250
 NucSpn=           1           1           0           1           1
 AtZEff=   0.0000000   0.0000000   0.0000000   0.0000000   0.0000000
 NQMom=    0.0000000   0.0000000   0.0000000   0.0000000   0.0000000
 NMagM=    2.7928460   2.7928460   0.0000000   2.7928460   2.7928460
 AtZNuc=   1.0000000   1.0000000   8.0000000   1.0000000   1.0000000
 Leave Link  101 at Wed May 16 03:59:43 2018, MaxMem= 14763950080 cpu:       199.5
 (Enter /cm/shared/gaussian/g09.e01/intel64-sandybridge/g09/l103.exe)

 GradGradGradGradGradGradGradGradGradGradGradGradGradGradGradGradGradGrad
 Berny optimization.
 Initialization pass.
 Trust Radius=3.00D-01 FncErr=1.00D-07 GrdErr=1.00D-07
 Number of steps in this run=      2 maximum allowed number of steps=      2.
 GradGradGradGradGradGradGradGradGradGradGradGradGradGradGradGradGradGrad

 Leave Link  103 at Wed May 16 03:59:46 2018, MaxMem= 14763950080 cpu:         5.0
 (Enter /cm/shared/gaussian/g09.e01/intel64-sandybridge/g09/l202.exe)
 Symmetry turned off by external request.
 Stoichiometry    BrH256O128(1-)
 Framework group  C1[X(BrH256O128)]
 Deg. of freedom  1149
 Full point group                 C1      NOp   1
                          Input orientation:                          
 ---------------------------------------------------------------------
 Center     Atomic      Atomic             Coordinates (Angstroms)
 Number     Number       Type             X           Y           Z
 ---------------------------------------------------------------------
      1         35           0       20.000000   20.000000   20.000000
      2          8           0       21.510000   20.220000   22.720000
      3          1           0       21.030000   20.190000   21.900000
      4          1           0       22.410000   20.440000   22.470000
      5          8           0       17.940000   21.470000   18.050000
      6          1           0       18.530000   21.030000   18.660000
      7          1           0       17.840000   20.850000   17.330000
      8          8           0       22.770000   19.150000   18.570000
      9          1           0       22.630000   18.290000   18.180000
     10          1           0       21.940000   19.350000   19.020000
     11          8           0       17.310000   19.290000   21.750000
     12          1           0       18.140000   19.190000   21.270000
     13          1           0       17.440000   18.760000   22.540000
     14          8           0       21.470000   17.120000   21.160000
     15          1           0       21.080000   17.870000   20.710000
     16          1           0       20.950000   16.370000   20.870000
     17          8           0       19.140000   17.280000   18.050000
     18          1           0       18.980000   17.520000   17.140000
     19          1           0       19.500000   18.080000   18.440000
     20          8           0       22.440000   22.190000   18.680000
     21          1           0       22.840000   21.640000   18.010000
     22          1           0       21.760000   21.640000   19.070000
     23          8           0       17.060000   17.210000   19.820000
     24          1           0       16.940000   18.110000   20.130000
     25          1           0       17.850000   17.250000   19.290000
     26          8           0       16.060000   21.180000   20.190000
     27          1           0       16.450000   21.190000   19.320000
     28          1           0       16.460000   20.420000   20.620000
     29          8           0       18.070000   24.100000   19.180000
     30          1           0       18.060000   23.160000   19.360000
     31          1           0       17.250000   24.270000   18.730000
     32          8           0       19.340000   21.260000   24.390000
     33          1           0       19.320000   22.200000   24.240000
     34          1           0       19.870000   20.910000   23.670000
     35          8           0       20.650000   17.780000   23.670000
     36          1           0       20.170000   18.590000   23.510000
     37          1           0       21.410000   17.820000   23.090000
     38          8           0       20.780000   24.550000   19.800000
     39          1           0       21.350000   23.790000   19.880000
     40          1           0       19.900000   24.190000   19.730000
     41          8           0       23.940000   20.600000   21.630000
     42          1           0       24.660000   20.160000   22.080000
     43          1           0       24.180000   20.570000   20.700000
     44          8           0       19.920000   22.690000   15.670000
     45          1           0       20.700000   23.120000   15.300000
     46          1           0       20.280000   21.970000   16.190000
     47          8           0       17.930000   19.770000   16.060000
     48          1           0       17.290000   19.810000   15.350000
     49          1           0       18.460000   18.990000   15.860000
     50          8           0       22.100000   16.850000   17.360000
     51          1           0       22.800000   16.190000   17.380000
     52          1           0       21.300000   16.350000   17.470000
     53          8           0       24.110000   16.740000   21.250000
     54          1           0       24.100000   17.370000   21.970000
     55          1           0       23.200000   16.690000   20.960000
     56          8           0       23.410000   23.310000   21.530000
     57          1           0       23.450000   23.460000   20.580000
     58          1           0       23.740000   22.420000   21.650000
     59          8           0       24.560000   20.470000   16.850000
     60          1           0       24.130000   19.950000   17.530000
     61          1           0       24.450000   19.950000   16.050000
     62          8           0       17.960000   18.800000   24.370000
     63          1           0       18.040000   18.300000   25.180000
     64          1           0       18.400000   19.630000   24.550000
     65          8           0       16.080000   22.910000   22.360000
     66          1           0       15.940000   22.350000   21.600000
     67          1           0       17.020000   22.850000   22.530000
     68          8           0       22.370000   22.970000   24.030000
     69          1           0       22.480000   23.380000   23.170000
     70          1           0       22.340000   22.030000   23.860000
     71          8           0       19.670000   15.010000   20.170000
     72          1           0       19.840000   14.780000   19.260000
     73          1           0       19.110000   14.300000   20.500000
     74          8           0       23.090000   24.350000   17.330000
     75          1           0       22.720000   23.680000   17.900000
     76          1           0       23.610000   24.900000   17.910000
     77          8           0       18.220000   15.680000   23.560000
     78          1           0       18.760000   16.460000   23.460000
     79          1           0       17.580000   15.910000   24.240000
     80          8           0       17.120000   23.520000   16.190000
     81          1           0       17.100000   23.040000   17.020000
     82          1           0       18.050000   23.670000   16.020000
     83          8           0       22.980000   20.270000   25.290000
     84          1           0       22.110000   20.470000   24.930000
     85          1           0       23.260000   19.490000   24.800000
     86          8           0       14.780000   16.850000   18.510000
     87          1           0       15.600000   17.060000   18.960000
     88          1           0       14.330000   17.690000   18.430000
     89          8           0       19.750000   18.070000   14.900000
     90          1           0       20.700000   18.080000   14.910000
     91          1           0       19.520000   18.260000   13.990000
     92          8           0       14.070000   19.410000   22.320000
     93          1           0       15.030000   19.380000   22.250000
     94          1           0       13.820000   20.170000   21.790000
     95          8           0       19.250000   24.070000   23.700000
     96          1           0       20.070000   24.570000   23.760000
     97          1           0       18.560000   24.730000   23.700000
     98          8           0       15.410000   15.490000   21.410000
     99          1           0       15.540000   15.020000   22.230000
    100          1           0       16.290000   15.660000   21.090000
    101          8           0       23.810000   17.650000   24.110000
    102          1           0       23.170000   17.130000   24.600000
    103          1           0       24.590000   17.650000   24.670000
    104          8           0       18.220000   26.610000   21.020000
    105          1           0       18.360000   26.410000   21.950000
    106          1           0       17.960000   25.770000   20.640000
    107          8           0       21.830000   16.240000   25.750000
    108          1           0       22.220000   15.400000   25.500000
    109          1           0       21.390000   16.550000   24.960000
    110          8           0       25.860000   16.750000   19.000000
    111          1           0       26.760000   16.640000   19.290000
    112          1           0       25.340000   16.780000   19.810000
    113          8           0       21.200000   26.130000   22.500000
    114          1           0       21.450000   27.050000   22.580000
    115          1           0       21.400000   25.900000   21.590000
    116          8           0       13.360000   21.480000   20.750000
    117          1           0       12.670000   22.110000   20.990000
    118          1           0       13.960000   21.990000   20.200000
    119          8           0       23.870000   14.890000   17.980000
    120          1           0       24.250000   15.420000   18.690000
    121          1           0       23.920000   13.990000   18.300000
    122          8           0       13.670000   19.220000   18.040000
    123          1           0       13.650000   19.750000   17.250000
    124          1           0       13.730000   19.850000   18.750000
    125          8           0       22.200000   13.260000   21.290000
    126          1           0       22.030000   14.140000   21.630000
    127          1           0       21.680000   12.680000   21.850000
    128          8           0       23.550000   19.170000   14.710000
    129          1           0       24.030000   18.380000   14.960000
    130          1           0       23.450000   19.100000   13.760000
    131          8           0       15.390000   24.670000   18.540000
    132          1           0       14.880000   25.350000   18.100000
    133          1           0       14.970000   23.850000   18.290000
    134          8           0       18.290000   21.590000   27.130000
    135          1           0       17.340000   21.440000   27.100000
    136          1           0       18.560000   21.570000   26.210000
    137          8           0       18.570000   15.400000   14.540000
    138          1           0       19.160000   16.130000   14.720000
    139          1           0       17.730000   15.690000   14.890000
    140          8           0       15.260000   18.260000   25.080000
    141          1           0       16.080000   18.740000   25.160000
    142          1           0       14.810000   18.670000   24.350000
    143          8           0       25.450000   22.980000   16.410000
    144          1           0       24.580000   23.390000   16.430000
    145          1           0       25.280000   22.050000   16.520000
    146          8           0       16.270000   15.450000   16.370000
    147          1           0       16.210000   14.500000   16.480000
    148          1           0       15.730000   15.800000   17.080000
    149          8           0       20.710000   26.260000   16.680000
    150          1           0       21.560000   25.810000   16.660000
    151          1           0       20.080000   25.600000   16.380000
    152          8           0       26.020000   19.840000   22.910000
    153          1           0       26.410000   20.670000   22.630000
    154          1           0       26.140000   19.820000   23.860000
    155          8           0       21.360000   22.110000   27.120000
    156          1           0       21.680000   21.920000   26.230000
    157          1           0       20.540000   21.630000   27.180000
    158          8           0       26.500000   22.430000   21.560000
    159          1           0       27.120000   23.150000   21.470000
    160          1           0       25.780000   22.790000   22.070000
    161          8           0       16.210000   13.310000   19.070000
    162          1           0       16.460000   14.130000   19.490000
    163          1           0       17.030000   12.820000   18.980000
    164          8           0       17.630000   13.230000   21.850000
    165          1           0       16.820000   12.860000   22.210000
    166          1           0       17.860000   13.930000   22.460000
    167          8           0       25.020000   24.770000   19.540000
    168          1           0       25.290000   24.870000   20.450000
    169          1           0       25.790000   25.010000   19.030000
    170          8           0       15.250000   25.670000   22.720000
    171          1           0       15.130000   26.290000   21.990000
    172          1           0       15.660000   24.910000   22.320000
    173          8           0       25.030000   16.790000   16.030000
    174          1           0       25.480000   17.460000   16.550000
    175          1           0       25.250000   15.970000   16.470000
    176          8           0       26.790000   21.370000   18.920000
    177          1           0       26.750000   21.930000   19.700000
    178          1           0       26.490000   21.930000   18.210000
    179          8           0       14.710000   23.020000   24.830000
    180          1           0       15.200000   23.190000   24.030000
    181          1           0       14.540000   23.890000   25.190000
    182          8           0       25.110000   14.740000   23.000000
    183          1           0       25.070000   14.080000   22.310000
    184          1           0       24.880000   15.560000   22.560000
    185          8           0       13.190000   16.850000   21.820000
    186          1           0       13.470000   17.750000   22.010000
    187          1           0       13.990000   16.390000   21.570000
    188          8           0       18.990000   17.130000   26.520000
    189          1           0       19.860000   16.770000   26.650000
    190          1           0       18.770000   17.540000   27.350000
    191          8           0       25.740000   21.330000   25.500000
    192          1           0       24.880000   20.970000   25.280000
    193          1           0       25.830000   21.180000   26.440000
    194          8           0       22.180000   27.520000   19.050000
    195          1           0       21.740000   26.890000   18.480000
    196          1           0       22.310000   27.060000   19.880000
    197          8           0       23.820000   24.300000   25.930000
    198          1           0       23.070000   24.710000   26.370000
    199          1           0       23.430000   23.780000   25.220000
    200          8           0       14.880000   22.980000   14.680000
    201          1           0       14.270000   23.680000   14.420000
    202          1           0       15.210000   23.260000   15.530000
    203          8           0       27.450000   17.950000   21.270000
    204          1           0       26.930000   18.480000   21.870000
    205          1           0       27.240000   18.290000   20.400000
    206          8           0       21.600000   13.190000   16.040000
    207          1           0       22.100000   13.920000   16.410000
[...]
   X336      23.26253   0.00184   0.00000   0.00127   0.00127  23.26380
   Y336      46.97859  -0.00388   0.00000  -0.00885  -0.00954  46.96905
   Z336      40.89367  -0.00801   0.00000  -0.00415  -0.00391  40.88977
   X337      24.92549   0.01683   0.00000   0.01310   0.01312  24.93861
   Y337      47.01639   0.00575   0.00000   0.00791   0.00723  47.02362
   Z337      43.21804   0.00135   0.00000  -0.00133  -0.00110  43.21693
   X338      39.75984   0.00997   0.00000   0.00626   0.00689  39.76672
   Y338      24.75541  -0.01082   0.00000  -0.01065  -0.01102  24.74439
   Z338      50.00215   0.01199   0.00000   0.00970   0.00961  50.01176
   X339      40.70470   0.00192   0.00000   0.00057   0.00116  40.70586
   Y339      25.30343   0.00541   0.00000   0.00683   0.00649  25.30992
   Z339      48.56596  -0.00316   0.00000   0.00214   0.00204  48.56801
   X340      38.05908  -0.00947   0.00000  -0.00412  -0.00352  38.05557
   Y340      25.28454   0.00293   0.00000   0.00024  -0.00017  25.28437
   Z340      49.66200  -0.00370   0.00000  -0.00191  -0.00198  49.66002
   X341      34.31743  -0.00676   0.00000  -0.00148  -0.00133  34.31610
   Y341      45.99593  -0.00125   0.00000   0.00242   0.00189  45.99782
   Z341      53.51704   0.01179   0.00000   0.01244   0.01257  53.52961
   X342      34.90324   0.00198   0.00000  -0.00104  -0.00094  34.90231
   Y342      47.54551   0.00770   0.00000   0.00456   0.00405  47.54956
   Z342      52.79895  -0.00921   0.00000  -0.01211  -0.01197  52.78698
   X343      35.45126   0.00052   0.00000  -0.00600  -0.00583  35.44543
   Y343      44.74871  -0.00751   0.00000  -0.00745  -0.00794  44.74077
   Z343      52.85564  -0.00396   0.00000  -0.00337  -0.00326  52.85238
   X344      27.23095   0.00701   0.00000   0.00687   0.00675  27.23770
   Y344      51.58952  -0.00433   0.00000  -0.00306  -0.00365  51.58588
   Z344      38.87167   0.01331   0.00000   0.00686   0.00710  38.87876
   X345      28.53486   0.00987   0.00000   0.01062   0.01048  28.54534
   Y345      51.81629   0.00214   0.00000   0.00279   0.00224  51.81853
   Z345      37.64334  -0.00672   0.00000  -0.00438  -0.00415  37.63920
   X346      25.70028  -0.01140   0.00000  -0.00678  -0.00692  25.69335
   Y346      51.83519   0.00164   0.00000   0.00096   0.00034  51.83553
   Z346      37.96460  -0.00546   0.00000  -0.00109  -0.00083  37.96377
   X347      45.61799  -0.01043   0.00000  -0.00767  -0.00784  45.61014
   Y347      48.62265  -0.00417   0.00000  -0.00312  -0.00317  48.61948
   Z347      27.24985  -0.00005   0.00000  -0.00424  -0.00420  27.24565
   X348      46.90300   0.01110   0.00000   0.01277   0.01259  46.91559
   Y348      48.49037   0.00077   0.00000   0.00075   0.00074  48.49111
   Z348      25.98373  -0.00202   0.00000   0.00235   0.00237  25.98611
   X349      46.22270   0.00290   0.00000   0.00216   0.00196  46.22467
   Y349      49.90767  -0.00011   0.00000  -0.00413  -0.00418  49.90349
   Z349      28.38369   0.00103   0.00000  -0.00022  -0.00018  28.38351
   X350      51.60842   0.01184   0.00000   0.00427   0.00417  51.61259
   Y350      46.33608   0.02381   0.00000   0.01823   0.01831  46.35439
   Z350      28.47817  -0.01280   0.00000  -0.00972  -0.00976  28.46841
   X351      52.95013   0.00019   0.00000  -0.00275  -0.00283  52.94729
   Y351      45.67468  -0.00466   0.00000  -0.00294  -0.00284  45.67184
   Z351      29.49862   0.00254   0.00000  -0.00105  -0.00111  29.49752
   X352      50.21002  -0.01335   0.00000  -0.00377  -0.00384  50.20618
   Y352      45.25894  -0.01745   0.00000  -0.01230  -0.01226  45.24668
   Z352      28.81832   0.00988   0.00000   0.01014   0.01011  28.82843
   X353      39.04174  -0.00642   0.00000  -0.00696  -0.00643  39.03531
   Y353      30.44349  -0.01080   0.00000  -0.00467  -0.00510  30.43839
   Z353      54.72647  -0.00906   0.00000  -0.00744  -0.00748  54.71899
   X354      39.98660   0.00536   0.00000   0.00550   0.00600  39.99260
   Y354      31.52063   0.00691   0.00000   0.00730   0.00691  31.52754
   Z354      53.61153   0.00009   0.00000   0.00297   0.00293  53.61446
   X355      39.09843   0.00169   0.00000   0.00105   0.00157  39.10001
   Y355      31.29386   0.00832   0.00000   0.00701   0.00658  31.30044
   Z355      56.31384   0.00769   0.00000   0.00211   0.00208  56.31592
   X356      33.95838  -0.00999   0.00000  -0.01017  -0.00986  33.94852
   Y356      40.36455  -0.00258   0.00000  -0.00493  -0.00549  40.35906
   Z356      56.14376   0.01853   0.00000   0.01983   0.01992  56.16369
   X357      35.58354   0.00420   0.00000   0.00276   0.00309  35.58663
   Y357      39.70315  -0.00084   0.00000   0.00013  -0.00039  39.70275
   Z357      56.59730  -0.00282   0.00000  -0.00274  -0.00267  56.59463
   X358      34.05286   0.00829   0.00000   0.01119   0.01148  34.06434
   Y358      40.61021   0.00244   0.00000   0.00458   0.00404  40.61425
   Z358      54.34852  -0.00116   0.00000   0.01016   0.01025  54.35878
   X359      19.80433  -0.00562   0.00000  -0.00843  -0.00814  19.79619
   Y359      35.86700  -0.00967   0.00000  -0.00417  -0.00496  35.86204
   Z359      43.18024  -0.00445   0.00000  -0.00543  -0.00524  43.17501
   X360      19.33190   0.00420   0.00000   0.00870   0.00897  19.34087
   Y360      37.22760   0.00870   0.00000   0.00813   0.00732  37.23492
   Z360      44.27628   0.00390   0.00000   0.00219   0.00239  44.27868
   X361      21.16493   0.00382   0.00000   0.00339   0.00365  21.16858
   Y361      36.52841   0.00263   0.00000   0.00152   0.00076  36.52917
   Z361      42.17869   0.00209   0.00000   0.00554   0.00573  42.18441
   X362      46.20380   0.02312   0.00000   0.01646   0.01623  46.22003
   Y362      54.00837   0.01256   0.00000   0.00895   0.00886  54.01723
   Z362      34.39302   0.00302   0.00000   0.00081   0.00089  34.39390
   X363      46.90300   0.00413   0.00000   0.00572   0.00548  46.90849
   Y363      53.40366  -0.00220   0.00000  -0.00186  -0.00192  53.40174
   Z363      32.84344  -0.00647   0.00000  -0.00675  -0.00669  32.83675
   X364      44.54084  -0.02159   0.00000  -0.01083  -0.01104  44.52980
   Y364      53.30917  -0.00849   0.00000  -0.00326  -0.00340  53.30577
   Z364      34.44971   0.00935   0.00000   0.01685   0.01694  34.46665
   X365      22.44995   0.01814   0.00000   0.01045   0.01045  22.46040
   Y365      45.67468   0.00596   0.00000   0.00176   0.00107  45.67575
   Z365      37.20871   0.00252   0.00000  -0.00185  -0.00161  37.20710
   X366      21.39170  -0.00728   0.00000  -0.00557  -0.00561  21.38609
   Y366      47.07308   0.00559   0.00000   0.00330   0.00259  47.07567
   Z366      36.77407  -0.00304   0.00000  -0.00282  -0.00256  36.77151
   X367      21.39170  -0.01402   0.00000  -0.01089  -0.01086  21.38084
   Y367      44.21959  -0.01578   0.00000  -0.01099  -0.01170  44.20789
   Z367      37.01973  -0.00347   0.00000  -0.00365  -0.00341  37.01633
   X368      45.29674   0.00640   0.00000   0.00227   0.00255  45.29929
   Y368      28.28920   0.01258   0.00000   0.01084   0.01080  28.30000
   Z368      24.18849  -0.00247   0.00000  -0.00435  -0.00447  24.18403
   X369      43.65267  -0.00568   0.00000  -0.00082  -0.00053  43.65215
   Y369      27.96795  -0.00504   0.00000  -0.00554  -0.00562  27.96233
   Z369      24.86880   0.00633   0.00000   0.00850   0.00840  24.87719
   X370      45.78806  -0.00116   0.00000  -0.00318  -0.00287  45.78520
   Y370      26.72073  -0.00643   0.00000  -0.00306  -0.00308  26.71765
   Z370      23.43260  -0.00211   0.00000  -0.00053  -0.00066  23.43194
   X371      45.10776   0.01250   0.00000   0.00852   0.00879  45.11655
   Y371      41.30941   0.00144   0.00000   0.00014  -0.00014  41.30927
   Z371      54.49970  -0.00486   0.00000  -0.00570  -0.00572  54.49399
   X372      43.74716  -0.00763   0.00000  -0.00687  -0.00662  43.74054
   Y372      41.98971  -0.00092   0.00000  -0.00371  -0.00402  41.98570
   Z372      53.49815  -0.00294   0.00000  -0.00222  -0.00222  53.49593
   X373      44.27628  -0.00605   0.00000  -0.00474  -0.00444  44.27185
   Y373      40.34565  -0.00383   0.00000  -0.00184  -0.00215  40.34351
   Z373      55.78472   0.00287   0.00000  -0.00141  -0.00143  55.78329
   X374      33.56154  -0.01436   0.00000  -0.01172  -0.01110  33.55044
   Y374      19.57756  -0.01695   0.00000  -0.01436  -0.01479  19.56278
   Z374      38.07798   0.01160   0.00000   0.01095   0.01088  38.08886
   X375      34.63868   0.00495   0.00000  -0.00662  -0.00603  34.63265
   Y375      20.74919   0.01050   0.00000   0.00370   0.00330  20.75250
   Z375      37.20871  -0.01059   0.00000  -0.00865  -0.00872  37.19999
   X376      34.33632   0.00286   0.00000   0.00405   0.00470  34.34102
   Y376      19.38859   0.00049   0.00000   0.00063   0.00021  19.38880
   Z376      39.70315   0.00317   0.00000   0.00578   0.00570  39.70885
   X377      21.41060  -0.02337   0.00000  -0.01958  -0.01920  21.39140
   Y377      29.61201   0.00273   0.00000   0.00765   0.00693  29.61894
   Z377      37.66224  -0.01602   0.00000  -0.00857  -0.00844  37.65380
   X378      22.58223   0.00293   0.00000  -0.00566  -0.00525  22.57698
   Y378      28.28920  -0.00666   0.00000  -0.00304  -0.00372  28.28548
   Z378      37.22760   0.00260   0.00000   0.00554   0.00565  37.23325
   X379      22.14759   0.01372   0.00000   0.01133   0.01171  22.15930
   Y379      30.40569   0.01083   0.00000   0.01053   0.00982  30.41551
   Z379      39.09843   0.01575   0.00000   0.00704   0.00716  39.10560
   X380      27.72228   0.01033   0.00000   0.00997   0.01041  27.73269
   Y380      24.71762   0.00735   0.00000   0.00066   0.00015  24.71777
   Z380      31.40725  -0.01572   0.00000  -0.01133  -0.01130  31.39595
   X381      27.93015   0.00350   0.00000   0.00442   0.00489  27.93504
   Y381      24.16960  -0.00068   0.00000   0.00664   0.00612  24.17571
   Z381      33.10800   0.01890   0.00000   0.01391   0.01394  33.12194
   X382      26.24830  -0.01002   0.00000  -0.00856  -0.00811  26.24019
   Y382      23.86724  -0.00346   0.00000   0.00032  -0.00023  23.86701
   Z382      30.82143  -0.00227   0.00000  -0.00097  -0.00093  30.82050
   X383      54.00837   0.01293   0.00000   0.00424   0.00444  54.01282
   Y383      40.64801   0.00585   0.00000   0.00602   0.00602  40.65403
   Z383      45.97704  -0.01150   0.00000  -0.00780  -0.00791  45.96913
   X384      54.34852  -0.00037   0.00000  -0.00068  -0.00043  54.34809
   Y384      38.92836  -0.00484   0.00000  -0.00128  -0.00127  38.92709
   Z384      46.43057   0.00124   0.00000  -0.00070  -0.00082  46.42975
   X385      52.43990  -0.01828   0.00000  -0.01506  -0.01486  52.42504
   Y385      41.02595   0.00000   0.00000  -0.00282  -0.00286  41.02309
   Z385      46.77072   0.00835   0.00000   0.00517   0.00508  46.77581
         Item               Value     Threshold  Converged?
 Maximum Force            0.038017     0.000450     NO 
 RMS     Force            0.010456     0.000300     NO 
 Maximum Displacement     0.030057     0.001800     NO 
 RMS     Displacement     0.008839     0.001200     NO 
 Predicted change in Energy=-7.161443D-02
 GradGradGradGradGradGradGradGradGradGradGradGradGradGradGradGradGradGrad

 Leave Link  103 at Wed May 16 06:32:14 2018, MaxMem= 14763950080 cpu:      3153.1
 (Enter /cm/shared/gaussian/g09.e01/intel64-sandybridge/g09/l9999.exe)
 1\1\GINC-POPLE04\Force\RPBE1PBE\CC-pVDZ\Br1H256O128(1-)\M.PELUSO\16-Ma
 y-2018\0\\#p PBE1PBE/cc-pvDZ force Counterpoise=2 noSymm\\forces on ch
 loride comput - NWATER: 128\\-1,1\Br,20.,20.,20.\O,21.51,20.22,22.72\H
 ,21.03,20.19,21.9\H,22.41,20.44,22.47\O,17.94,21.47,18.05\H,18.53,21.0
 3,18.66\H,17.84,20.85,17.33\O,22.77,19.15,18.57\H,22.63,18.29,18.18\H,
 21.94,19.35,19.02\O,17.31,19.29,21.75\H,18.14,19.19,21.27\H,17.44,18.7
 6,22.54\O,21.47,17.12,21.16\H,21.08,17.87,20.71\H,20.95,16.37,20.87\O,
 19.14,17.28,18.05\H,18.98,17.52,17.14\H,19.5,18.08,18.44\O,22.44,22.19
 ,18.68\H,22.84,21.64,18.01\H,21.76,21.64,19.07\O,17.06,17.21,19.82\H,1
 6.94,18.11,20.13\H,17.85,17.25,19.29\O,16.06,21.18,20.19\H,16.45,21.19
 ,19.32\H,16.46,20.42,20.62\O,18.07,24.1,19.18\H,18.06,23.16,19.36\H,17
 .25,24.27,18.73\O,19.34,21.26,24.39\H,19.32,22.2,24.24\H,19.87,20.91,2
 3.67\O,20.65,17.78,23.67\H,20.17,18.59,23.51\H,21.41,17.82,23.09\O,20.
 78,24.55,19.8\H,21.35,23.79,19.88\H,19.9,24.19,19.73\O,23.94,20.6,21.6
 3\H,24.66,20.16,22.08\H,24.18,20.57,20.7\O,19.92,22.69,15.67\H,20.7,23
 .12,15.3\H,20.28,21.97,16.19\O,17.93,19.77,16.06\H,17.29,19.81,15.35\H
 ,18.46,18.99,15.86\O,22.1,16.85,17.36\H,22.8,16.19,17.38\H,21.3,16.35,
 17.47\O,24.11,16.74,21.25\H,24.1,17.37,21.97\H,23.2,16.69,20.96\O,23.4
 1,23.31,21.53\H,23.45,23.46,20.58\H,23.74,22.42,21.65\O,24.56,20.47,16
 .85\H,24.13,19.95,17.53\H,24.45,19.95,16.05\O,17.96,18.8,24.37\H,18.04
 ,18.3,25.18\H,18.4,19.63,24.55\O,16.08,22.91,22.36\H,15.94,22.35,21.6\
 H,17.02,22.85,22.53\O,22.37,22.97,24.03\H,22.48,23.38,23.17\H,22.34,22
 .03,23.86\O,19.67,15.01,20.17\H,19.84,14.78,19.26\H,19.11,14.3,20.5\O,
 23.09,24.35,17.33\H,22.72,23.68,17.9\H,23.61,24.9,17.91\O,18.22,15.68,
 23.56\H,18.76,16.46,23.46\H,17.58,15.91,24.24\O,17.12,23.52,16.19\H,17
 .1,23.04,17.02\H,18.05,23.67,16.02\O,22.98,20.27,25.29\H,22.11,20.47,2
 4.93\H,23.26,19.49,24.8\O,14.78,16.85,18.51\H,15.6,17.06,18.96\H,14.33
 ,17.69,18.43\O,19.75,18.07,14.9\H,20.7,18.08,14.91\H,19.52,18.26,13.99
 \O,14.07,19.41,22.32\H,15.03,19.38,22.25\H,13.82,20.17,21.79\O,19.25,2
 4.07,23.7\H,20.07,24.57,23.76\H,18.56,24.73,23.7\O,15.41,15.49,21.41\H
 ,15.54,15.02,22.23\H,16.29,15.66,21.09\O,23.81,17.65,24.11\H,23.17,17.
 13,24.6\H,24.59,17.65,24.67\O,18.22,26.61,21.02\H,18.36,26.41,21.95\H,
 17.96,25.77,20.64\O,21.83,16.24,25.75\H,22.22,15.4,25.5\H,21.39,16.55,
 24.96\O,25.86,16.75,19.\H,26.76,16.64,19.29\H,25.34,16.78,19.81\O,21.2
 ,26.13,22.5\H,21.45,27.05,22.58\H,21.4,25.9,21.59\O,13.36,21.48,20.75\
 H,12.67,22.11,20.99\H,13.96,21.99,20.2\O,23.87,14.89,17.98\H,24.25,15.
 42,18.69\H,23.92,13.99,18.3\O,13.67,19.22,18.04\H,13.65,19.75,17.25\H,
 13.73,19.85,18.75\O,22.2,13.26,21.29\H,22.03,14.14,21.63\H,21.68,12.68
 ,21.85\O,23.55,19.17,14.71\H,24.03,18.38,14.96\H,23.45,19.1,13.76\O,15
 .39,24.67,18.54\H,14.88,25.35,18.1\H,14.97,23.85,18.29\O,18.29,21.59,2
 7.13\H,17.34,21.44,27.1\H,18.56,21.57,26.21\O,18.57,15.4,14.54\H,19.16
 ,16.13,14.72\H,17.73,15.69,14.89\O,15.26,18.26,25.08\H,16.08,18.74,25.
 16\H,14.81,18.67,24.35\O,25.45,22.98,16.41\H,24.58,23.39,16.43\H,25.28
 ,22.05,16.52\O,16.27,15.45,16.37\H,16.21,14.5,16.48\H,15.73,15.8,17.08
 \O,20.71,26.26,16.68\H,21.56,25.81,16.66\H,20.08,25.6,16.38\O,26.02,19
 .84,22.91\H,26.41,20.67,22.63\H,26.14,19.82,23.86\O,21.36,22.11,27.12\
 H,21.68,21.92,26.23\H,20.54,21.63,27.18\O,26.5,22.43,21.56\H,27.12,23.
 15,21.47\H,25.78,22.79,22.07\O,16.21,13.31,19.07\H,16.46,14.13,19.49\H
 ,17.03,12.82,18.98\O,17.63,13.23,21.85\H,16.82,12.86,22.21\H,17.86,13.
 93,22.46\O,25.02,24.77,19.54\H,25.29,24.87,20.45\H,25.79,25.01,19.03\O
 ,15.25,25.67,22.72\H,15.13,26.29,21.99\H,15.66,24.91,22.32\O,25.03,16.
 79,16.03\H,25.48,17.46,16.55\H,25.25,15.97,16.47\O,26.79,21.37,18.92\H
 ,26.75,21.93,19.7\H,26.49,21.93,18.21\O,14.71,23.02,24.83\H,15.2,23.19
 ,24.03\H,14.54,23.89,25.19\O,25.11,14.74,23.\H,25.07,14.08,22.31\H,24.
 88,15.56,22.56\O,13.19,16.85,21.82\H,13.47,17.75,22.01\H,13.99,16.39,2
 1.57\O,18.99,17.13,26.52\H,19.86,16.77,26.65\H,18.77,17.54,27.35\O,25.
 74,21.33,25.5\H,24.88,20.97,25.28\H,25.83,21.18,26.44\O,22.18,27.52,19
 .05\H,21.74,26.89,18.48\H,22.31,27.06,19.88\O,23.82,24.3,25.93\H,23.07
 ,24.71,26.37\H,23.43,23.78,25.22\O,14.88,22.98,14.68\H,14.27,23.68,14.
 42\H,15.21,23.26,15.53\O,27.45,17.95,21.27\H,26.93,18.48,21.87\H,27.24
 ,18.29,20.4\O,21.6,13.19,16.04\H,22.1,13.92,16.41\H,21.46,13.44,15.13\
 O,21.92,24.09,13.95\H,22.75,23.92,14.38\H,22.13,24.76,13.29\O,13.5,22.
 68,17.7\H,12.77,23.02,18.21\H,13.09,22.32,16.91\O,15.14,20.12,14.42\H,
 15.13,21.07,14.52\H,14.4,19.93,13.85\O,17.54,24.05,13.36\H,17.14,23.61
 ,14.11\H,16.9,24.71,13.09\O,27.86,18.8,18.45\H,28.79,19.05,18.46\H,27.
 4,19.6,18.7\O,18.55,13.6,25.4\H,17.79,13.05,25.23\H,18.47,14.32,24.78\
 O,21.57,12.11,18.9\H,22.31,11.62,18.54\H,21.95,12.66,19.58\O,17.51,26.
 16,23.84\H,16.64,26.12,23.44\H,17.54,27.03,24.24\O,15.86,21.08,26.69\H
 ,15.45,21.56,25.98\H,15.15,20.54,27.06\O,19.93,23.07,12.1\H,20.28,23.1
 5,12.98\H,19.3,23.78,12.02\O,22.66,14.17,24.28\H,23.61,14.21,24.24\H,2
 2.44,13.28,24.\O,19.4,18.93,12.33\H,19.66,19.63,11.73\H,18.44,18.91,12
 .27\O,21.34,16.79,13.02\H,22.1,17.16,12.58\H,20.59,17.14,12.54\O,17.98
 ,12.88,15.87\H,18.17,13.78,15.59\H,17.33,12.57,15.24\O,15.57,16.22,13.
 71\H,14.72,16.66,13.71\H,15.75,16.05,14.64\O,16.44,18.35,12.38\H,16.38
 ,17.48,12.78\H,16.27,18.96,13.09\O,20.35,11.5,22.06\H,19.84,12.3,21.92
 \H,19.78,10.95,22.6\O,18.83,12.19,18.61\H,18.59,12.05,17.69\H,19.77,12
 .04,18.65\O,22.26,18.64,28.1\H,22.38,19.48,27.67\H,22.85,18.05,27.63\O
 ,19.08,28.5,17.95\H,18.76,27.84,18.56\H,19.76,28.05,17.45\O,13.28,13.8
 7,19.48\H,13.84,13.28,19.98\H,13.86,14.58,19.21\O,11.76,16.89,17.42\H,
 12.65,16.76,17.74\H,11.21,16.8,18.2\O,29.17,21.02,20.59\H,29.1,21.9,20
 .96\H,28.31,20.85,20.21\O,15.63,14.01,23.99\H,15.65,13.51,24.8\H,14.83
 ,13.73,23.55\O,12.56,20.89,15.69\H,13.25,21.16,15.08\H,12.2,20.09,15.3
 \O,19.42,26.18,26.51\H,20.23,25.69,26.66\H,19.41,26.34,25.57\O,16.91,2
 2.2,11.4\H,17.51,22.21,12.15\H,16.18,22.76,11.67\O,20.93,14.19,13.7\H,
 19.98,14.18,13.71\H,21.17,14.94,13.16\O,23.54,21.52,11.54\H,23.58,22.4
 2,11.21\H,22.7,21.48,12.\O,15.9,27.,15.14\H,16.01,26.11,15.48\H,16.34,
 26.99,14.29\O,25.71,26.05,22.18\H,26.65,26.18,22.05\H,25.64,25.79,23.1
 \O,23.68,28.04,21.37\H,24.14,28.57,20.72\H,24.27,27.31,21.55\O,24.99,1
 2.54,21.32\H,24.05,12.4,21.42\H,25.37,12.24,22.14\O,10.91,21.61,18.73\
 H,11.35,20.9,19.2\H,10.88,21.33,17.82\O,26.19,24.76,24.6\H,26.95,24.51
 ,25.12\H,25.44,24.51,25.14\O,22.99,18.71,11.89\H,23.89,18.42,11.8\H,23
 .01,19.64,11.69\O,11.9,22.03,24.33\H,12.09,22.88,23.94\H,12.76,21.7,24
 .61\O,13.27,15.61,25.35\H,14.04,16.15,25.18\H,12.83,15.54,24.5\O,26.27
 ,16.78,25.27\H,26.23,15.88,24.97\H,27.2,16.97,25.34\O,26.26,21.21,12.8
 \H,25.36,21.29,13.1\H,26.45,20.27,12.84\O,26.83,14.41,20.37\H,27.06,14
 .35,19.44\H,26.25,13.67,20.52\O,28.26,18.69,15.79\H,29.11,18.26,15.64\
 H,28.06,18.49,16.7\O,12.29,24.73,22.59\H,12.31,24.86,21.64\H,13.19,24.
 88,22.87\O,21.04,13.1,26.46\H,21.54,13.39,25.7\H,20.14,13.38,26.28\O,1
 8.16,24.34,28.32\H,18.47,25.16,27.94\H,18.76,23.68,27.97\O,14.41,27.3,
 20.57\H,15.1,27.42,19.92\H,13.6,27.43,20.09\O,24.14,25.73,14.42\H,24.8
 2,25.66,13.75\H,24.46,26.41,15.02\O,27.31,24.52,15.07\H,28.02,24.17,15
 .61\H,26.57,23.95,15.25\O,20.66,16.11,28.96\H,21.16,16.68,28.37\H,20.6
 9,16.56,29.8\O,17.97,21.36,29.71\H,18.83,21.01,29.95\H,18.02,21.49,28.
 76\O,10.48,18.98,22.85\H,10.23,19.7,23.43\H,11.2,19.33,22.32\O,24.45,2
 8.58,18.2\H,24.82,28.26,17.38\H,23.57,28.21,18.23\O,11.88,24.17,19.69\
 H,11.32,24.91,19.46\H,11.32,23.4,19.59\O,23.97,14.97,12.8\H,23.1,14.8,
 13.16\H,24.23,14.14,12.4\O,23.87,21.86,28.84\H,23.15,22.22,28.31\H,23.
 43,21.35,29.52\O,17.76,10.36,20.15\H,18.33,10.98,19.69\H,18.17,10.26,2
 1.01\O,11.33,15.67,19.93\H,11.95,14.97,19.7\H,11.72,16.09,20.69\O,14.6
 7,13.08,16.62\H,14.78,12.79,17.52\H,13.89,12.63,16.31\O,28.58,21.51,24
 .33\H,28.76,20.6,24.57\H,27.75,21.71,24.75\\Version=ES64L-G09RevE.01\H
 F=-9773.3739107\RMSD=1.948e-09\RMSF=1.046e-02\Dipole=3.9799153,0.43879
 3,-7.2215452\Quadrupole=397.7703902,132.9265848,-530.696975,-1345.6051
 537,-1437.8947567,-1729.5933672\PG=C01 [X(Br1H256O128)]\\@


 WHEN YOU REACH FOR THE STARS, YOU MAY NOT QUITE GET ONE,
 BUT YOU WON'T COME UP WITH A HANDFUL OF MUD, EITHER.

                                         -- LEO BURNETT (AD AGENCY HEAD)
 Job cpu time:       6 days 15 hours 51 minutes 17.8 seconds.
 File lengths (MBytes):  RWF=   7285 Int=      0 D2E=      0 Chk=   2411 Scr=      1
 Normal termination of Gaussian 09 at Wed May 16 06:32:38 2018.
