 Entering Gaussian System, Link 0=/cm/shared/gaussian/g09.e01/intel64-sandybridge/g09/g09
 Initial command:
 /cm/shared/gaussian/g09.e01/intel64-sandybridge/g09/l1.exe "/local/scratch/m.peluso/128_wat/370/Gau-44502.inp" -scrdir="/local/scratch/m.peluso/128_wat/370/"
 Entering Link 1 = /cm/shared/gaussian/g09.e01/intel64-sandybridge/g09/l1.exe PID=     44503.
  
 Copyright (c) 1988,1990,1992,1993,1995,1998,2003,2009,2015,
            Gaussian, Inc.  All Rights Reserved.
  
 This is part of the Gaussian(R) 09 program.  It is based on
 the Gaussian(R) 03 system (copyright 2003, Gaussian, Inc.),
 the Gaussian(R) 98 system (copyright 1998, Gaussian, Inc.),
 the Gaussian(R) 94 system (copyright 1995, Gaussian, Inc.),
 the Gaussian 92(TM) system (copyright 1992, Gaussian, Inc.),
 the Gaussian 90(TM) system (copyright 1990, Gaussian, Inc.),
 the Gaussian 88(TM) system (copyright 1988, Gaussian, Inc.),
 the Gaussian 86(TM) system (copyright 1986, Carnegie Mellon
 University), and the Gaussian 82(TM) system (copyright 1983,
 Carnegie Mellon University). Gaussian is a federally registered
 trademark of Gaussian, Inc.
  
 This software contains proprietary and confidential information,
 including trade secrets, belonging to Gaussian, Inc.
  
 This software is provided under written license and may be
 used, copied, transmitted, or stored only in accord with that
 written license.
  
 The following legend is applicable only to US Government
 contracts under FAR:
  
                    RESTRICTED RIGHTS LEGEND
  
 Use, reproduction and disclosure by the US Government is
 subject to restrictions as set forth in subparagraphs (a)
 and (c) of the Commercial Computer Software - Restricted
 Rights clause in FAR 52.227-19.
  
 Gaussian, Inc.
 340 Quinnipiac St., Bldg. 40, Wallingford CT 06492
  
  
 ---------------------------------------------------------------
 Warning -- This program may not be used in any manner that
 competes with the business of Gaussian, Inc. or will provide
 assistance to any competitor of Gaussian, Inc.  The licensee
 of this program is prohibited from giving any competitor of
 Gaussian, Inc. access to this program.  By using this program,
 the user acknowledges that Gaussian, Inc. is engaged in the
 business of creating and licensing software in the field of
 computational chemistry and represents and warrants to the
 licensee that it is not a competitor of Gaussian, Inc. and that
 it will not use this program in any manner prohibited above.
 ---------------------------------------------------------------
  

 Cite this work as:
 Gaussian 09, Revision E.01,
 M. J. Frisch, G. W. Trucks, H. B. Schlegel, G. E. Scuseria, 
 M. A. Robb, J. R. Cheeseman, G. Scalmani, V. Barone, B. Mennucci, 
 G. A. Petersson, H. Nakatsuji, M. Caricato, X. Li, H. P. Hratchian, 
 A. F. Izmaylov, J. Bloino, G. Zheng, J. L. Sonnenberg, M. Hada, 
 M. Ehara, K. Toyota, R. Fukuda, J. Hasegawa, M. Ishida, T. Nakajima, 
 Y. Honda, O. Kitao, H. Nakai, T. Vreven, J. A. Montgomery, Jr., 
 J. E. Peralta, F. Ogliaro, M. Bearpark, J. J. Heyd, E. Brothers, 
 K. N. Kudin, V. N. Staroverov, T. Keith, R. Kobayashi, J. Normand, 
 K. Raghavachari, A. Rendell, J. C. Burant, S. S. Iyengar, J. Tomasi, 
 M. Cossi, N. Rega, J. M. Millam, M. Klene, J. E. Knox, J. B. Cross, 
 V. Bakken, C. Adamo, J. Jaramillo, R. Gomperts, R. E. Stratmann, 
 O. Yazyev, A. J. Austin, R. Cammi, C. Pomelli, J. W. Ochterski, 
 R. L. Martin, K. Morokuma, V. G. Zakrzewski, G. A. Voth, 
 P. Salvador, J. J. Dannenberg, S. Dapprich, A. D. Daniels, 
 O. Farkas, J. B. Foresman, J. V. Ortiz, J. Cioslowski, 
 and D. J. Fox, Gaussian, Inc., Wallingford CT, 2013.
 
 ******************************************
 Gaussian 09:  ES64L-G09RevE.01 30-Nov-2015
                 9-May-2018 
 ******************************************
 %Mem=110GB
 %NProcShared=64
 Will use up to   64 processors via shared memory.
 %chk=snap61.chk
 ----------------------------------------------
 #p PBE1PBE/cc-pvDZ force Counterpoise=2 noSymm
 ----------------------------------------------
 1/10=7,30=1,38=1,62=2/1,3;
 2/12=2,15=1,17=6,18=5,40=1/2;
 1/10=7,30=1,38=1,53=2,62=2,63=101/22;
 3/5=16,11=2,16=1,25=1,30=1,71=1,74=-13/1,2,3;
 4//1;
 5/5=2,38=5/2;
 6/7=2,8=2,9=2,10=2,28=1/1;
 7/7=1,29=1,30=1,33=-1/1,2,3,16;
 1/10=7,30=1,53=2,62=2,63=101/22;
 3/5=7,6=11,11=2,16=1,25=1,30=1,71=1,74=-13,82=7/1,2,3;
 4//1;
 5/5=2,38=5/2;
 6/7=2,8=2,9=2,10=2,28=1/1;
 7/7=1,29=1,30=1,33=-1/1,2,3,16;
 1/10=7,30=1,53=2,62=2,63=101/22(-5);
 7/9=1,29=1,44=-1/16;
 1/10=7,30=1,62=2/3;
 99//99;
 Leave Link    1 at Wed May  9 05:57:45 2018, MaxMem= 14763950080 cpu:         5.9
 (Enter /cm/shared/gaussian/g09.e01/intel64-sandybridge/g09/l101.exe)
 ---------------------------------------
 forces on chloride comput - NWATER: 128
 ---------------------------------------
 Symbolic Z-matrix:
 Charge = -1 Multiplicity = 1 in supermolecule
 Charge = -1 Multiplicity = 1 in fragment      1.
 Charge =  0 Multiplicity = 1 in fragment      2.
 Br(Fragment=1)        20.       20.       20. 
 O(Fragment=2)         22.15     22.03     19.34 
 H(Fragment=2)         22.83     22.05     20.02 
 H(Fragment=2)         21.56     21.33     19.61 
 O(Fragment=2)         17.17     18.84     19.33 
 H(Fragment=2)         18.04     19.17     19.54 
 H(Fragment=2)         16.65     19.01     20.11 
 O(Fragment=2)         21.44     20.19     17.18 
 H(Fragment=2)         22.13     20.82     17.39 
 H(Fragment=2)         20.86     20.21     17.93 
 O(Fragment=2)         22.29     17.77     19.59 
 H(Fragment=2)         22.88     18.42     19.2 
 H(Fragment=2)         21.68     18.28     20.12 
 O(Fragment=2)         20.7      22.06     23.65 
 H(Fragment=2)         20.68     21.39     22.97 
 H(Fragment=2)         20.3      22.83     23.23 
 O(Fragment=2)         18.8      18.61     23.44 
 H(Fragment=2)         18.4      19.33     22.96 
 H(Fragment=2)         19.7      18.89     23.58 
 O(Fragment=2)         17.05     23.45     20.07 
 H(Fragment=2)         17.7      22.75     20. 
 H(Fragment=2)         17.51     24.23     19.76 
 O(Fragment=2)         21.04     23.35     17.34 
 H(Fragment=2)         20.72     24.2      17.62 
 H(Fragment=2)         21.31     22.91     18.15 
 O(Fragment=2)         19.94     16.23     22.09 
 H(Fragment=2)         19.3      16.95     22.13 
 H(Fragment=2)         19.42     15.47     21.83 
 O(Fragment=2)         18.48     16.08     18.25 
 H(Fragment=2)         18.12     16.77     18.82 
 H(Fragment=2)         18.3      16.39     17.37 
 O(Fragment=2)         21.6      17.57     16.41 
 H(Fragment=2)         21.63     18.49     16.14 
 H(Fragment=2)         21.68     17.59     17.36 
 O(Fragment=2)         22.57     16.65     22.03 
 H(Fragment=2)         22.64     17.28     21.31 
 H(Fragment=2)         21.69     16.29     21.96 
 O(Fragment=2)         16.38     21.15     16.7 
 H(Fragment=2)         17.05     21.69     16.28 
 H(Fragment=2)         16.8      20.82     17.49 
 O(Fragment=2)         17.18     20.66     23.07 
 H(Fragment=2)         17.08     21.51     22.65 
 H(Fragment=2)         16.46     20.13     22.72 
 O(Fragment=2)         19.67     21.93     15.3 
 H(Fragment=2)         20.03     22.12     16.16 
 H(Fragment=2)         19.9      22.69     14.76 
 O(Fragment=2)         16.27     17.55     17.35 
 H(Fragment=2)         16.24     18.06     18.17 
 H(Fragment=2)         16.84     18.06     16.77 
 O(Fragment=2)         21.98     18.92     24.04 
 H(Fragment=2)         22.85     19.3      23.9 
 H(Fragment=2)         22.08     18.       23.83 
 O(Fragment=2)         18.44     18.56     15.45 
 H(Fragment=2)         18.69     17.65     15.33 
 H(Fragment=2)         19.27     19.03     15.51 
 O(Fragment=2)         23.43     22.47     22.29 
 H(Fragment=2)         23.29     23.33     22.7 
 H(Fragment=2)         23.59     21.88     23.02 
 O(Fragment=2)         24.49     19.06     18.06 
 H(Fragment=2)         24.73     18.79     17.18 
 H(Fragment=2)         25.15     18.67     18.63 
 O(Fragment=2)         15.86     18.42     22.49 
 H(Fragment=2)         15.85     18.11     23.4 
 H(Fragment=2)         16.01     17.63     21.97 
 O(Fragment=2)         20.8      14.73     17.85 
 H(Fragment=2)         19.97     15.15     17.61 
 H(Fragment=2)         21.16     15.29     18.54 
 O(Fragment=2)         19.22     24.18     22.79 
 H(Fragment=2)         19.52     24.93     22.28 
 H(Fragment=2)         19.02     24.54     23.66 
 O(Fragment=2)         17.94     23.75     16.09 
 H(Fragment=2)         18.21     24.66     15.97 
 H(Fragment=2)         18.77     23.26     16.16 
 O(Fragment=2)         23.79     15.14     19.81 
 H(Fragment=2)         23.1      15.81     19.89 
 H(Fragment=2)         24.61     15.63     19.87 
 O(Fragment=2)         16.55     16.15     21.03 
 H(Fragment=2)         15.94     16.63     20.48 
 H(Fragment=2)         16.37     15.23     20.85 
 O(Fragment=2)         19.29     20.71     25.76 
 H(Fragment=2)         18.48     20.65     25.25 
 H(Fragment=2)         19.91     21.15     25.18 
 O(Fragment=2)         16.7      23.5      23.18 
 H(Fragment=2)         17.66     23.51     23.23 
 H(Fragment=2)         16.47     24.35     22.81 
 O(Fragment=2)         19.82     25.23     18.89 
 H(Fragment=2)         19.29     25.77     18.3 
 H(Fragment=2)         19.78     25.69     19.73 
 O(Fragment=2)         24.92     21.58     17.04 
 H(Fragment=2)         24.66     20.74     17.42 
 H(Fragment=2)         25.43     22.       17.73 
 O(Fragment=2)         26.02     21.02     21.31 
 H(Fragment=2)         25.34     20.35     21.33 
 H(Fragment=2)         26.65     20.75     21.98 
 O(Fragment=2)         25.18     18.26     21.09 
 H(Fragment=2)         25.58     17.47     20.74 
 H(Fragment=2)         25.01     18.06     22.01 
 O(Fragment=2)         17.67     16.17     24.57 
 H(Fragment=2)         17.96     17.04     24.27 
 H(Fragment=2)         17.71     16.23     25.53 
 O(Fragment=2)         24.3      24.61     20.58 
 H(Fragment=2)         23.85     23.91     21.04 
 H(Fragment=2)         23.64     24.98     20. 
 O(Fragment=2)         22.27     24.88     23.2 
 H(Fragment=2)         22.56     25.05     24.09 
 H(Fragment=2)         21.49     24.34     23.3 
 O(Fragment=2)         20.31     15.46     24.68 
 H(Fragment=2)         20.43     15.8      23.79 
 H(Fragment=2)         19.37     15.25     24.73 
 O(Fragment=2)         23.45     23.26     15.54 
 H(Fragment=2)         24.17     22.78     15.95 
 H(Fragment=2)         22.66     22.79     15.8 
 O(Fragment=2)         13.95     20.21     21.86 
 H(Fragment=2)         13.14     19.71     21.76 
 H(Fragment=2)         14.61     19.55     22.07 
 O(Fragment=2)         14.64     23.33     18.09 
 H(Fragment=2)         14.3      22.59     18.59 
 H(Fragment=2)         15.58     23.33     18.26 
 O(Fragment=2)         20.04     20.       13.53 
 H(Fragment=2)         20.04     20.69     14.18 
 H(Fragment=2)         19.21     20.12     13.05 
 O(Fragment=2)         22.46     26.13     19.16 
 H(Fragment=2)         22.37     27.06     19.36 
 H(Fragment=2)         21.57     25.79     19.21 
 O(Fragment=2)         21.94     22.64     26.17 
 H(Fragment=2)         22.03     22.28     25.28 
 H(Fragment=2)         22.37     23.49     26.12 
 O(Fragment=2)         14.5      17.23     20.19 
 H(Fragment=2)         13.79     17.37     20.81 
 H(Fragment=2)         14.25     17.74     19.42 
 O(Fragment=2)         20.2      26.36     21.43 
 H(Fragment=2)         20.97     25.87     21.7 
 H(Fragment=2)         20.52     27.24     21.24 
 O(Fragment=2)         22.08     17.       13.92 
 H(Fragment=2)         22.74     17.66     13.71 
 H(Fragment=2)         21.91     17.11     14.86 
 O(Fragment=2)         15.72     19.28     14.8 
 H(Fragment=2)         15.97     20.14     15.13 
 H(Fragment=2)         16.49     18.74     14.96 
 O(Fragment=2)         19.01     13.65     21.32 
 H(Fragment=2)         18.43     13.96     20.63 
 H(Fragment=2)         19.84     13.48     20.87 
 O(Fragment=2)         25.98     22.72     19.29 
 H(Fragment=2)         25.42     23.45     19.54 
 H(Fragment=2)         25.96     22.14     20.05 
 O(Fragment=2)         13.46     21.21     19.34 
 H(Fragment=2)         13.72     21.       20.24 
 H(Fragment=2)         13.43     20.36     18.9 
 O(Fragment=2)         24.42     15.14     23.29 
 H(Fragment=2)         23.77     14.79     23.91 
 H(Fragment=2)         23.89     15.5      22.58 
 O(Fragment=2)         21.75     25.61     15.43 
 H(Fragment=2)         22.34     25.44     14.7 
 H(Fragment=2)         21.72     24.79     15.92 
 O(Fragment=2)         21.92     18.67     26.99 
 H(Fragment=2)         22.38     19.43     27.35 
 H(Fragment=2)         22.12     18.69     26.05 
 O(Fragment=2)         24.19     20.12     14.29 
 H(Fragment=2)         24.45     20.27     15.2 
 H(Fragment=2)         24.55     19.26     14.07 
 O(Fragment=2)         24.8      20.96     24.36 
 H(Fragment=2)         24.69     20.34     25.08 
 H(Fragment=2)         25.61     21.42     24.56 
 O(Fragment=2)         15.86     21.97     25.77 
 H(Fragment=2)         15.97     21.02     25.79 
 H(Fragment=2)         16.16     22.24     24.91 
 O(Fragment=2)         24.64     17.29     15.52 
 H(Fragment=2)         25.34     16.79     15.11 
 H(Fragment=2)         24.16     16.65     16.05 
 O(Fragment=2)         18.5      15.71     15.14 
 H(Fragment=2)         17.68     15.62     14.65 
 H(Fragment=2)         19.02     14.95     14.88 
 O(Fragment=2)         13.42     18.97     17.89 
 H(Fragment=2)         12.57     18.75     17.49 
 H(Fragment=2)         14.06     18.75     17.22 
 O(Fragment=2)         23.98     14.89     16.93 
 H(Fragment=2)         23.18     14.37     16.86 
 H(Fragment=2)         24.05     15.08     17.87 
 O(Fragment=2)         25.21     17.53     23.83 
 H(Fragment=2)         24.62     16.79     23.68 
 H(Fragment=2)         25.32     17.55     24.78 
 O(Fragment=2)         13.9      22.82     22.99 
 H(Fragment=2)         13.89     22.07     22.39 
 H(Fragment=2)         14.82     23.11     22.99 
 O(Fragment=2)         15.69     16.01     15.02 
 H(Fragment=2)         15.27     16.53     14.34 
 H(Fragment=2)         15.75     16.6      15.77 
 O(Fragment=2)         15.89     14.3      23.49 
 H(Fragment=2)         15.15     14.64     22.99 
 H(Fragment=2)         16.56     14.97     23.41 
 O(Fragment=2)         16.05     19.15     25.7 
 H(Fragment=2)         16.48     18.52     26.28 
 H(Fragment=2)         15.28     18.68     25.36 
 O(Fragment=2)         13.65     21.96     15.63 
 H(Fragment=2)         14.38     21.79     16.22 
 H(Fragment=2)         13.92     22.7      15.1 
 O(Fragment=2)         22.08     12.87     20.11 
 H(Fragment=2)         22.79     13.49     19.95 
 H(Fragment=2)         22.49     12.01     20.03 
 O(Fragment=2)         19.87     16.87     27.15 
 H(Fragment=2)         20.23     16.59     26.31 
 H(Fragment=2)         20.2      17.76     27.27 
 O(Fragment=2)         15.76     14.14     17.31 
 H(Fragment=2)         15.3      14.58     16.59 
 H(Fragment=2)         15.56     14.66     18.08 
 O(Fragment=2)         16.82     23.8      13.56 
 H(Fragment=2)         16.17     24.5      13.69 
 H(Fragment=2)         17.05     23.53     14.45 
 O(Fragment=2)         18.15     12.38     18.07 
 H(Fragment=2)         17.44     12.82     17.6 
 H(Fragment=2)         18.81     13.06     18.2 
 O(Fragment=2)         26.49     16.39     19.4 
 H(Fragment=2)         26.46     15.82     18.63 
 H(Fragment=2)         26.99     17.16     19.12 
 O(Fragment=2)         18.6      23.82     26.66 
 H(Fragment=2)         18.72     22.88     26.76 
 H(Fragment=2)         17.79     23.92     26.15 
 O(Fragment=2)         20.       13.22     15.48 
 H(Fragment=2)         20.47     12.45     15.16 
 H(Fragment=2)         20.67     13.78     15.85 
 O(Fragment=2)         18.95     26.19     15.42 
 H(Fragment=2)         18.87     26.93     14.83 
 H(Fragment=2)         19.87     25.93     15.36 
 O(Fragment=2)         18.77     19.84     28.34 
 H(Fragment=2)         18.68     18.89     28.2 
 H(Fragment=2)         19.16     20.16     27.53 
 O(Fragment=2)         18.04     27.2      18.6 
 H(Fragment=2)         18.14     27.8      17.86 
 H(Fragment=2)         17.17     27.41     18.96 
 O(Fragment=2)         22.41     20.3      12.17 
 H(Fragment=2)         21.58     20.       12.55 
 H(Fragment=2)         23.04     20.24     12.88 
 O(Fragment=2)         17.47     26.28     23.79 
 H(Fragment=2)         16.61     26.61     24.05 
 H(Fragment=2)         17.94     27.06     23.49 
 O(Fragment=2)         13.85     18.2      24.55 
 H(Fragment=2)         13.1      18.58     25. 
 H(Fragment=2)         13.5      17.92     23.7 
 O(Fragment=2)         26.5      24.2      22.75 
 H(Fragment=2)         26.23     25.09     22.55 
 H(Fragment=2)         26.53     23.75     21.9 
 O(Fragment=2)         19.58     25.79     25.2 
 H(Fragment=2)         18.74     26.18     24.93 
 H(Fragment=2)         19.34     25.17     25.89 
 O(Fragment=2)         15.4      13.71     20.48 
 H(Fragment=2)         14.61     14.05     20.06 
 H(Fragment=2)         15.18     12.82     20.73 
 O(Fragment=2)         19.68     16.31     12.21 
 H(Fragment=2)         18.86     16.79     12.3 
 H(Fragment=2)         20.16     16.52     13.01 
 O(Fragment=2)         19.92     12.33     24.04 
 H(Fragment=2)         19.75     12.91     23.29 
 H(Fragment=2)         19.19     12.49     24.63 
 O(Fragment=2)         22.75     14.35     25.44 
 H(Fragment=2)         21.83     14.47     25.22 
 H(Fragment=2)         22.74     14.09     26.36 
 O(Fragment=2)         23.36     27.76     22.4 
 H(Fragment=2)         22.69     27.96     23.05 
 H(Fragment=2)         23.19     26.85     22.15 
 O(Fragment=2)         17.28     17.81     12.1 
 H(Fragment=2)         16.43     18.13     11.79 
 H(Fragment=2)         17.62     18.52     12.65 
 O(Fragment=2)         27.69     18.68     18.56 
 H(Fragment=2)         27.72     18.34     17.67 
 H(Fragment=2)         28.31     19.4      18.57 
 O(Fragment=2)         17.98     20.81     12.07 
 H(Fragment=2)         17.32     21.07     11.43 
 H(Fragment=2)         18.32     21.64     12.41 
 O(Fragment=2)         25.38     25.58     16.13 
 H(Fragment=2)         24.85     25.01     15.57 
 H(Fragment=2)         25.22     25.27     17.02 
 O(Fragment=2)         24.72     22.82     12.93 
 H(Fragment=2)         25.36     22.17     12.63 
 H(Fragment=2)         24.41     22.48     13.77 
 O(Fragment=2)         20.6      23.72     12.91 
 H(Fragment=2)         21.18     24.39     13.27 
 H(Fragment=2)         21.19     23.03     12.61 
 O(Fragment=2)         27.3      21.34     15.12 
 H(Fragment=2)         26.75     21.46     15.89 
 H(Fragment=2)         27.85     22.13     15.09 
 O(Fragment=2)         24.74     12.87     21.83 
 H(Fragment=2)         25.52     12.53     22.28 
 H(Fragment=2)         24.65     13.77     22.15 
 O(Fragment=2)         21.38     27.55     24.5 
 H(Fragment=2)         21.49     27.9      25.38 
 H(Fragment=2)         20.85     26.76     24.62 
 O(Fragment=2)         12.32     17.85     22.24 
 H(Fragment=2)         11.95     17.82     23.12 
 H(Fragment=2)         11.81     17.22     21.74 
 O(Fragment=2)         17.96     13.43     25.61 
 H(Fragment=2)         17.36     12.81     26.03 
 H(Fragment=2)         17.4      14.15     25.32 
 O(Fragment=2)         12.35     24.04     16.7 
 H(Fragment=2)         12.17     23.51     15.92 
 H(Fragment=2)         13.25     23.84     16.93 
 O(Fragment=2)         27.13     18.73     15.84 
 H(Fragment=2)         26.82     18.19     15.11 
 H(Fragment=2)         27.33     19.58     15.45 
 O(Fragment=2)         12.46     19.43     14.79 
 H(Fragment=2)         13.05     20.01     15.27 
 H(Fragment=2)         13.01     19.05     14.1 
 O(Fragment=2)         15.69     26.04     15.34 
 H(Fragment=2)         15.62     26.33     14.43 
 H(Fragment=2)         16.58     26.3      15.6 
 O(Fragment=2)         21.25     21.56     28.94 
 H(Fragment=2)         21.58     21.83     28.09 
 H(Fragment=2)         20.37     21.21     28.77 
 O(Fragment=2)         25.03     19.31     26.76 
 H(Fragment=2)         25.06     19.77     27.59 
 H(Fragment=2)         25.35     18.43     26.96 
 O(Fragment=2)         15.17     27.72     18.8 
 H(Fragment=2)         15.03     26.78     18.93 
 H(Fragment=2)         14.41     28.02     18.3 
 O(Fragment=2)         29.07     22.02     20.23 
 H(Fragment=2)         29.23     21.44     20.98 
 H(Fragment=2)         28.36     21.6      19.75 
 O(Fragment=2)         12.12     24.06     21.25 
 H(Fragment=2)         12.41     24.67     21.93 
 H(Fragment=2)         12.26     23.19     21.63 
 O(Fragment=2)         28.14     17.33     24.07 
 H(Fragment=2)         27.9      16.41     24.14 
 H(Fragment=2)         27.38     17.75     23.67 
 O(Fragment=2)         21.87     28.27     15.93 
 H(Fragment=2)         22.66     28.67     16.29 
 H(Fragment=2)         22.03     27.33     15.97 
 O(Fragment=2)         15.43     25.07     26.4 
 H(Fragment=2)         14.7      25.39     25.87 
 H(Fragment=2)         15.55     24.16     26.12 
 O(Fragment=2)         19.29     29.24     20.72 
 H(Fragment=2)         19.91     29.5      20.05 
 H(Fragment=2)         18.76     28.55     20.31 
 O(Fragment=2)         12.96     20.01     26.46 
 H(Fragment=2)         13.65     20.28     25.86 
 H(Fragment=2)         12.74     20.81     26.95 
 O(Fragment=2)         27.81     21.12     23.54 
 H(Fragment=2)         28.64     20.69     23.72 
 H(Fragment=2)         28.01     22.06     23.56 
 O(Fragment=2)         16.34     11.6      22.79 
 H(Fragment=2)         17.16     11.16     22.54 
 H(Fragment=2)         16.49     12.52     22.58 
 O(Fragment=2)         10.75     22.13     19.1 
 H(Fragment=2)         11.61     22.51     19.28 
 H(Fragment=2)         10.81     21.81     18.2 
 O(Fragment=2)         25.6      12.41     18.8 
 H(Fragment=2)         26.17     13.1      18.46 
 H(Fragment=2)         25.09     12.84     19.49 
 O(Fragment=2)         13.02     23.79     25.23 
 H(Fragment=2)         13.2      23.       24.73 
 H(Fragment=2)         12.77     24.44     24.58 
 O(Fragment=2)         26.52     23.04     25.47 
 H(Fragment=2)         26.8      23.59     26.2 
 H(Fragment=2)         26.5      23.63     24.72 
 O(Fragment=2)         22.75     25.29     26.56 
 H(Fragment=2)         22.43     26.13     26.88 
 H(Fragment=2)         23.69     25.3      26.74 
 O(Fragment=2)         16.71     15.85     27.17 
 H(Fragment=2)         17.45     15.52     27.68 
 H(Fragment=2)         16.33     15.06     26.78 
 O(Fragment=2)         26.21     27.55     19.27 
 H(Fragment=2)         25.72     26.84     19.69 
 H(Fragment=2)         25.54     28.18     19. 
 O(Fragment=2)         27.21     14.48     23.7 
 H(Fragment=2)         27.46     13.72     23.16 
 H(Fragment=2)         26.32     14.68     23.44 
 O(Fragment=2)         27.06     14.55     17.53 
 H(Fragment=2)         26.42     14.56     16.82 
 H(Fragment=2)         27.67     13.85     17.3 
 O(Fragment=2)         17.18     22.42     29.07 
 H(Fragment=2)         17.76     21.89     28.52 
 H(Fragment=2)         17.33     23.32     28.77 
 O(Fragment=2)         18.94     28.38     23.17 
 H(Fragment=2)         19.78     28.32     23.62 
 H(Fragment=2)         19.12     28.9      22.39 
 O(Fragment=2)         26.22     27.04     22.45 
 H(Fragment=2)         26.43     27.97     22.41 
 H(Fragment=2)         25.34     26.97     22.09 
 O(Fragment=2)         12.89     25.81     19.11 
 H(Fragment=2)         12.82     25.25     18.35 
 H(Fragment=2)         12.64     25.25     19.85 
 O(Fragment=2)         22.21     28.81     19.59 
 H(Fragment=2)         21.89     29.56     19.08 
 H(Fragment=2)         23.11     29.04     19.83 
 O(Fragment=2)         12.88     25.72     23.21 
 H(Fragment=2)         12.46     26.5      22.84 
 H(Fragment=2)         13.82     25.9      23.17 
 
 NAtoms=    385 NQM=      385 NQMF=       0 NMMI=      0 NMMIF=      0
                NMic=       0 NMicF=      0.
                    Isotopes and Nuclear Properties:
 (Nuclear quadrupole moments (NQMom) in fm**2, nuclear magnetic moments (NMagM)
  in nuclear magnetons)

  Atom         1           2           3           4           5           6           7           8           9          10
 IAtWgt=          79          16           1           1          16           1           1          16           1           1
 AtmWgt=  78.9183361  15.9949146   1.0078250   1.0078250  15.9949146   1.0078250   1.0078250  15.9949146   1.0078250   1.0078250
 NucSpn=           3           0           1           1           0           1           1           0           1           1
 AtZEff=   0.0000000   0.0000000   0.0000000   0.0000000   0.0000000   0.0000000   0.0000000   0.0000000   0.0000000   0.0000000
 NQMom=   31.3000000   0.0000000   0.0000000   0.0000000   0.0000000   0.0000000   0.0000000   0.0000000   0.0000000   0.0000000
 NMagM=    2.1063990   0.0000000   2.7928460   2.7928460   0.0000000   2.7928460   2.7928460   0.0000000   2.7928460   2.7928460
 AtZNuc=  35.0000000   8.0000000   1.0000000   1.0000000   8.0000000   1.0000000   1.0000000   8.0000000   1.0000000   1.0000000

  Atom        11          12          13          14          15          16          17          18          19          20
 IAtWgt=          16           1           1          16           1           1          16           1           1          16
 AtmWgt=  15.9949146   1.0078250   1.0078250  15.9949146   1.0078250   1.0078250  15.9949146   1.0078250   1.0078250  15.9949146
 NucSpn=           0           1           1           0           1           1           0           1           1           0
 AtZEff=   0.0000000   0.0000000   0.0000000   0.0000000   0.0000000   0.0000000   0.0000000   0.0000000   0.0000000   0.0000000
 NQMom=    0.0000000   0.0000000   0.0000000   0.0000000   0.0000000   0.0000000   0.0000000   0.0000000   0.0000000   0.0000000
 NMagM=    0.0000000   2.7928460   2.7928460   0.0000000   2.7928460   2.7928460   0.0000000   2.7928460   2.7928460   0.0000000
 AtZNuc=   8.0000000   1.0000000   1.0000000   8.0000000   1.0000000   1.0000000   8.0000000   1.0000000   1.0000000   8.0000000

  Atom        21          22          23          24          25          26          27          28          29          30
 IAtWgt=           1           1          16           1           1          16           1           1          16           1
 AtmWgt=   1.0078250   1.0078250  15.9949146   1.0078250   1.0078250  15.9949146   1.0078250   1.0078250  15.9949146   1.0078250
 NucSpn=           1           1           0           1           1           0           1           1           0           1
 AtZEff=   0.0000000   0.0000000   0.0000000   0.0000000   0.0000000   0.0000000   0.0000000   0.0000000   0.0000000   0.0000000
 NQMom=    0.0000000   0.0000000   0.0000000   0.0000000   0.0000000   0.0000000   0.0000000   0.0000000   0.0000000   0.0000000
 NMagM=    2.7928460   2.7928460   0.0000000   2.7928460   2.7928460   0.0000000   2.7928460   2.7928460   0.0000000   2.7928460
 AtZNuc=   1.0000000   1.0000000   8.0000000   1.0000000   1.0000000   8.0000000   1.0000000   1.0000000   8.0000000   1.0000000

  Atom        31          32          33          34          35          36          37          38          39          40
 IAtWgt=           1          16           1           1          16           1           1          16           1           1
 AtmWgt=   1.0078250  15.9949146   1.0078250   1.0078250  15.9949146   1.0078250   1.0078250  15.9949146   1.0078250   1.0078250
 NucSpn=           1           0           1           1           0           1           1           0           1           1
 AtZEff=   0.0000000   0.0000000   0.0000000   0.0000000   0.0000000   0.0000000   0.0000000   0.0000000   0.0000000   0.0000000
 NQMom=    0.0000000   0.0000000   0.0000000   0.0000000   0.0000000   0.0000000   0.0000000   0.0000000   0.0000000   0.0000000
 NMagM=    2.7928460   0.0000000   2.7928460   2.7928460   0.0000000   2.7928460   2.7928460   0.0000000   2.7928460   2.7928460
 AtZNuc=   1.0000000   8.0000000   1.0000000   1.0000000   8.0000000   1.0000000   1.0000000   8.0000000   1.0000000   1.0000000

  Atom        41          42          43          44          45          46          47          48          49          50
 IAtWgt=          16           1           1          16           1           1          16           1           1          16
 AtmWgt=  15.9949146   1.0078250   1.0078250  15.9949146   1.0078250   1.0078250  15.9949146   1.0078250   1.0078250  15.9949146
 NucSpn=           0           1           1           0           1           1           0           1           1           0
 AtZEff=   0.0000000   0.0000000   0.0000000   0.0000000   0.0000000   0.0000000   0.0000000   0.0000000   0.0000000   0.0000000
 NQMom=    0.0000000   0.0000000   0.0000000   0.0000000   0.0000000   0.0000000   0.0000000   0.0000000   0.0000000   0.0000000
 NMagM=    0.0000000   2.7928460   2.7928460   0.0000000   2.7928460   2.7928460   0.0000000   2.7928460   2.7928460   0.0000000
 AtZNuc=   8.0000000   1.0000000   1.0000000   8.0000000   1.0000000   1.0000000   8.0000000   1.0000000   1.0000000   8.0000000

  Atom        51          52          53          54          55          56          57          58          59          60
 IAtWgt=           1           1          16           1           1          16           1           1          16           1
 AtmWgt=   1.0078250   1.0078250  15.9949146   1.0078250   1.0078250  15.9949146   1.0078250   1.0078250  15.9949146   1.0078250
 NucSpn=           1           1           0           1           1           0           1           1           0           1
 AtZEff=   0.0000000   0.0000000   0.0000000   0.0000000   0.0000000   0.0000000   0.0000000   0.0000000   0.0000000   0.0000000
 NQMom=    0.0000000   0.0000000   0.0000000   0.0000000   0.0000000   0.0000000   0.0000000   0.0000000   0.0000000   0.0000000
 NMagM=    2.7928460   2.7928460   0.0000000   2.7928460   2.7928460   0.0000000   2.7928460   2.7928460   0.0000000   2.7928460
 AtZNuc=   1.0000000   1.0000000   8.0000000   1.0000000   1.0000000   8.0000000   1.0000000   1.0000000   8.0000000   1.0000000

  Atom        61          62          63          64          65          66          67          68          69          70
 IAtWgt=           1          16           1           1          16           1           1          16           1           1
 AtmWgt=   1.0078250  15.9949146   1.0078250   1.0078250  15.9949146   1.0078250   1.0078250  15.9949146   1.0078250   1.0078250
 NucSpn=           1           0           1           1           0           1           1           0           1           1
 AtZEff=   0.0000000   0.0000000   0.0000000   0.0000000   0.0000000   0.0000000   0.0000000   0.0000000   0.0000000   0.0000000
 NQMom=    0.0000000   0.0000000   0.0000000   0.0000000   0.0000000   0.0000000   0.0000000   0.0000000   0.0000000   0.0000000
 NMagM=    2.7928460   0.0000000   2.7928460   2.7928460   0.0000000   2.7928460   2.7928460   0.0000000   2.7928460   2.7928460
 AtZNuc=   1.0000000   8.0000000   1.0000000   1.0000000   8.0000000   1.0000000   1.0000000   8.0000000   1.0000000   1.0000000

  Atom        71          72          73          74          75          76          77          78          79          80
 IAtWgt=          16           1           1          16           1           1          16           1           1          16
 AtmWgt=  15.9949146   1.0078250   1.0078250  15.9949146   1.0078250   1.0078250  15.9949146   1.0078250   1.0078250  15.9949146
 NucSpn=           0           1           1           0           1           1           0           1           1           0
 AtZEff=   0.0000000   0.0000000   0.0000000   0.0000000   0.0000000   0.0000000   0.0000000   0.0000000   0.0000000   0.0000000
 NQMom=    0.0000000   0.0000000   0.0000000   0.0000000   0.0000000   0.0000000   0.0000000   0.0000000   0.0000000   0.0000000
 NMagM=    0.0000000   2.7928460   2.7928460   0.0000000   2.7928460   2.7928460   0.0000000   2.7928460   2.7928460   0.0000000
 AtZNuc=   8.0000000   1.0000000   1.0000000   8.0000000   1.0000000   1.0000000   8.0000000   1.0000000   1.0000000   8.0000000

  Atom        81          82          83          84          85          86          87          88          89          90
 IAtWgt=           1           1          16           1           1          16           1           1          16           1
 AtmWgt=   1.0078250   1.0078250  15.9949146   1.0078250   1.0078250  15.9949146   1.0078250   1.0078250  15.9949146   1.0078250
 NucSpn=           1           1           0           1           1           0           1           1           0           1
 AtZEff=   0.0000000   0.0000000   0.0000000   0.0000000   0.0000000   0.0000000   0.0000000   0.0000000   0.0000000   0.0000000
 NQMom=    0.0000000   0.0000000   0.0000000   0.0000000   0.0000000   0.0000000   0.0000000   0.0000000   0.0000000   0.0000000
 NMagM=    2.7928460   2.7928460   0.0000000   2.7928460   2.7928460   0.0000000   2.7928460   2.7928460   0.0000000   2.7928460
 AtZNuc=   1.0000000   1.0000000   8.0000000   1.0000000   1.0000000   8.0000000   1.0000000   1.0000000   8.0000000   1.0000000

  Atom        91          92          93          94          95          96          97          98          99         100
 IAtWgt=           1          16           1           1          16           1           1          16           1           1
 AtmWgt=   1.0078250  15.9949146   1.0078250   1.0078250  15.9949146   1.0078250   1.0078250  15.9949146   1.0078250   1.0078250
 NucSpn=           1           0           1           1           0           1           1           0           1           1
 AtZEff=   0.0000000   0.0000000   0.0000000   0.0000000   0.0000000   0.0000000   0.0000000   0.0000000   0.0000000   0.0000000
 NQMom=    0.0000000   0.0000000   0.0000000   0.0000000   0.0000000   0.0000000   0.0000000   0.0000000   0.0000000   0.0000000
 NMagM=    2.7928460   0.0000000   2.7928460   2.7928460   0.0000000   2.7928460   2.7928460   0.0000000   2.7928460   2.7928460
 AtZNuc=   1.0000000   8.0000000   1.0000000   1.0000000   8.0000000   1.0000000   1.0000000   8.0000000   1.0000000   1.0000000

  Atom       101         102         103         104         105         106         107         108         109         110
 IAtWgt=          16           1           1          16           1           1          16           1           1          16
 AtmWgt=  15.9949146   1.0078250   1.0078250  15.9949146   1.0078250   1.0078250  15.9949146   1.0078250   1.0078250  15.9949146
 NucSpn=           0           1           1           0           1           1           0           1           1           0
 AtZEff=   0.0000000   0.0000000   0.0000000   0.0000000   0.0000000   0.0000000   0.0000000   0.0000000   0.0000000   0.0000000
 NQMom=    0.0000000   0.0000000   0.0000000   0.0000000   0.0000000   0.0000000   0.0000000   0.0000000   0.0000000   0.0000000
 NMagM=    0.0000000   2.7928460   2.7928460   0.0000000   2.7928460   2.7928460   0.0000000   2.7928460   2.7928460   0.0000000
 AtZNuc=   8.0000000   1.0000000   1.0000000   8.0000000   1.0000000   1.0000000   8.0000000   1.0000000   1.0000000   8.0000000

  Atom       111         112         113         114         115         116         117         118         119         120
 IAtWgt=           1           1          16           1           1          16           1           1          16           1
 AtmWgt=   1.0078250   1.0078250  15.9949146   1.0078250   1.0078250  15.9949146   1.0078250   1.0078250  15.9949146   1.0078250
 NucSpn=           1           1           0           1           1           0           1           1           0           1
 AtZEff=   0.0000000   0.0000000   0.0000000   0.0000000   0.0000000   0.0000000   0.0000000   0.0000000   0.0000000   0.0000000
 NQMom=    0.0000000   0.0000000   0.0000000   0.0000000   0.0000000   0.0000000   0.0000000   0.0000000   0.0000000   0.0000000
 NMagM=    2.7928460   2.7928460   0.0000000   2.7928460   2.7928460   0.0000000   2.7928460   2.7928460   0.0000000   2.7928460
 AtZNuc=   1.0000000   1.0000000   8.0000000   1.0000000   1.0000000   8.0000000   1.0000000   1.0000000   8.0000000   1.0000000

  Atom       121         122         123         124         125         126         127         128         129         130
 IAtWgt=           1          16           1           1          16           1           1          16           1           1
 AtmWgt=   1.0078250  15.9949146   1.0078250   1.0078250  15.9949146   1.0078250   1.0078250  15.9949146   1.0078250   1.0078250
 NucSpn=           1           0           1           1           0           1           1           0           1           1
 AtZEff=   0.0000000   0.0000000   0.0000000   0.0000000   0.0000000   0.0000000   0.0000000   0.0000000   0.0000000   0.0000000
 NQMom=    0.0000000   0.0000000   0.0000000   0.0000000   0.0000000   0.0000000   0.0000000   0.0000000   0.0000000   0.0000000
 NMagM=    2.7928460   0.0000000   2.7928460   2.7928460   0.0000000   2.7928460   2.7928460   0.0000000   2.7928460   2.7928460
 AtZNuc=   1.0000000   8.0000000   1.0000000   1.0000000   8.0000000   1.0000000   1.0000000   8.0000000   1.0000000   1.0000000

  Atom       131         132         133         134         135         136         137         138         139         140
 IAtWgt=          16           1           1          16           1           1          16           1           1          16
 AtmWgt=  15.9949146   1.0078250   1.0078250  15.9949146   1.0078250   1.0078250  15.9949146   1.0078250   1.0078250  15.9949146
 NucSpn=           0           1           1           0           1           1           0           1           1           0
 AtZEff=   0.0000000   0.0000000   0.0000000   0.0000000   0.0000000   0.0000000   0.0000000   0.0000000   0.0000000   0.0000000
 NQMom=    0.0000000   0.0000000   0.0000000   0.0000000   0.0000000   0.0000000   0.0000000   0.0000000   0.0000000   0.0000000
 NMagM=    0.0000000   2.7928460   2.7928460   0.0000000   2.7928460   2.7928460   0.0000000   2.7928460   2.7928460   0.0000000
 AtZNuc=   8.0000000   1.0000000   1.0000000   8.0000000   1.0000000   1.0000000   8.0000000   1.0000000   1.0000000   8.0000000

  Atom       141         142         143         144         145         146         147         148         149         150
 IAtWgt=           1           1          16           1           1          16           1           1          16           1
 AtmWgt=   1.0078250   1.0078250  15.9949146   1.0078250   1.0078250  15.9949146   1.0078250   1.0078250  15.9949146   1.0078250
 NucSpn=           1           1           0           1           1           0           1           1           0           1
 AtZEff=   0.0000000   0.0000000   0.0000000   0.0000000   0.0000000   0.0000000   0.0000000   0.0000000   0.0000000   0.0000000
 NQMom=    0.0000000   0.0000000   0.0000000   0.0000000   0.0000000   0.0000000   0.0000000   0.0000000   0.0000000   0.0000000
 NMagM=    2.7928460   2.7928460   0.0000000   2.7928460   2.7928460   0.0000000   2.7928460   2.7928460   0.0000000   2.7928460
 AtZNuc=   1.0000000   1.0000000   8.0000000   1.0000000   1.0000000   8.0000000   1.0000000   1.0000000   8.0000000   1.0000000

  Atom       151         152         153         154         155         156         157         158         159         160
 IAtWgt=           1          16           1           1          16           1           1          16           1           1
 AtmWgt=   1.0078250  15.9949146   1.0078250   1.0078250  15.9949146   1.0078250   1.0078250  15.9949146   1.0078250   1.0078250
 NucSpn=           1           0           1           1           0           1           1           0           1           1
 AtZEff=   0.0000000   0.0000000   0.0000000   0.0000000   0.0000000   0.0000000   0.0000000   0.0000000   0.0000000   0.0000000
 NQMom=    0.0000000   0.0000000   0.0000000   0.0000000   0.0000000   0.0000000   0.0000000   0.0000000   0.0000000   0.0000000
 NMagM=    2.7928460   0.0000000   2.7928460   2.7928460   0.0000000   2.7928460   2.7928460   0.0000000   2.7928460   2.7928460
 AtZNuc=   1.0000000   8.0000000   1.0000000   1.0000000   8.0000000   1.0000000   1.0000000   8.0000000   1.0000000   1.0000000

  Atom       161         162         163         164         165         166         167         168         169         170
 IAtWgt=          16           1           1          16           1           1          16           1           1          16
 AtmWgt=  15.9949146   1.0078250   1.0078250  15.9949146   1.0078250   1.0078250  15.9949146   1.0078250   1.0078250  15.9949146
 NucSpn=           0           1           1           0           1           1           0           1           1           0
 AtZEff=   0.0000000   0.0000000   0.0000000   0.0000000   0.0000000   0.0000000   0.0000000   0.0000000   0.0000000   0.0000000
 NQMom=    0.0000000   0.0000000   0.0000000   0.0000000   0.0000000   0.0000000   0.0000000   0.0000000   0.0000000   0.0000000
 NMagM=    0.0000000   2.7928460   2.7928460   0.0000000   2.7928460   2.7928460   0.0000000   2.7928460   2.7928460   0.0000000
 AtZNuc=   8.0000000   1.0000000   1.0000000   8.0000000   1.0000000   1.0000000   8.0000000   1.0000000   1.0000000   8.0000000

  Atom       171         172         173         174         175         176         177         178         179         180
 IAtWgt=           1           1          16           1           1          16           1           1          16           1
 AtmWgt=   1.0078250   1.0078250  15.9949146   1.0078250   1.0078250  15.9949146   1.0078250   1.0078250  15.9949146   1.0078250
 NucSpn=           1           1           0           1           1           0           1           1           0           1
 AtZEff=   0.0000000   0.0000000   0.0000000   0.0000000   0.0000000   0.0000000   0.0000000   0.0000000   0.0000000   0.0000000
 NQMom=    0.0000000   0.0000000   0.0000000   0.0000000   0.0000000   0.0000000   0.0000000   0.0000000   0.0000000   0.0000000
 NMagM=    2.7928460   2.7928460   0.0000000   2.7928460   2.7928460   0.0000000   2.7928460   2.7928460   0.0000000   2.7928460
 AtZNuc=   1.0000000   1.0000000   8.0000000   1.0000000   1.0000000   8.0000000   1.0000000   1.0000000   8.0000000   1.0000000

  Atom       181         182         183         184         185         186         187         188         189         190
 IAtWgt=           1          16           1           1          16           1           1          16           1           1
 AtmWgt=   1.0078250  15.9949146   1.0078250   1.0078250  15.9949146   1.0078250   1.0078250  15.9949146   1.0078250   1.0078250
 NucSpn=           1           0           1           1           0           1           1           0           1           1
 AtZEff=   0.0000000   0.0000000   0.0000000   0.0000000   0.0000000   0.0000000   0.0000000   0.0000000   0.0000000   0.0000000
 NQMom=    0.0000000   0.0000000   0.0000000   0.0000000   0.0000000   0.0000000   0.0000000   0.0000000   0.0000000   0.0000000
 NMagM=    2.7928460   0.0000000   2.7928460   2.7928460   0.0000000   2.7928460   2.7928460   0.0000000   2.7928460   2.7928460
 AtZNuc=   1.0000000   8.0000000   1.0000000   1.0000000   8.0000000   1.0000000   1.0000000   8.0000000   1.0000000   1.0000000

  Atom       191         192         193         194         195         196         197         198         199         200
 IAtWgt=          16           1           1          16           1           1          16           1           1          16
 AtmWgt=  15.9949146   1.0078250   1.0078250  15.9949146   1.0078250   1.0078250  15.9949146   1.0078250   1.0078250  15.9949146
 NucSpn=           0           1           1           0           1           1           0           1           1           0
 AtZEff=   0.0000000   0.0000000   0.0000000   0.0000000   0.0000000   0.0000000   0.0000000   0.0000000   0.0000000   0.0000000
 NQMom=    0.0000000   0.0000000   0.0000000   0.0000000   0.0000000   0.0000000   0.0000000   0.0000000   0.0000000   0.0000000
 NMagM=    0.0000000   2.7928460   2.7928460   0.0000000   2.7928460   2.7928460   0.0000000   2.7928460   2.7928460   0.0000000
 AtZNuc=   8.0000000   1.0000000   1.0000000   8.0000000   1.0000000   1.0000000   8.0000000   1.0000000   1.0000000   8.0000000

  Atom       201         202         203         204         205         206         207         208         209         210
 IAtWgt=           1           1          16           1           1          16           1           1          16           1
 AtmWgt=   1.0078250   1.0078250  15.9949146   1.0078250   1.0078250  15.9949146   1.0078250   1.0078250  15.9949146   1.0078250
 NucSpn=           1           1           0           1           1           0           1           1           0           1
 AtZEff=   0.0000000   0.0000000   0.0000000   0.0000000   0.0000000   0.0000000   0.0000000   0.0000000   0.0000000   0.0000000
 NQMom=    0.0000000   0.0000000   0.0000000   0.0000000   0.0000000   0.0000000   0.0000000   0.0000000   0.0000000   0.0000000
 NMagM=    2.7928460   2.7928460   0.0000000   2.7928460   2.7928460   0.0000000   2.7928460   2.7928460   0.0000000   2.7928460
 AtZNuc=   1.0000000   1.0000000   8.0000000   1.0000000   1.0000000   8.0000000   1.0000000   1.0000000   8.0000000   1.0000000

  Atom       211         212         213         214         215         216         217         218         219         220
 IAtWgt=           1          16           1           1          16           1           1          16           1           1
 AtmWgt=   1.0078250  15.9949146   1.0078250   1.0078250  15.9949146   1.0078250   1.0078250  15.9949146   1.0078250   1.0078250
 NucSpn=           1           0           1           1           0           1           1           0           1           1
 AtZEff=   0.0000000   0.0000000   0.0000000   0.0000000   0.0000000   0.0000000   0.0000000   0.0000000   0.0000000   0.0000000
 NQMom=    0.0000000   0.0000000   0.0000000   0.0000000   0.0000000   0.0000000   0.0000000   0.0000000   0.0000000   0.0000000
 NMagM=    2.7928460   0.0000000   2.7928460   2.7928460   0.0000000   2.7928460   2.7928460   0.0000000   2.7928460   2.7928460
 AtZNuc=   1.0000000   8.0000000   1.0000000   1.0000000   8.0000000   1.0000000   1.0000000   8.0000000   1.0000000   1.0000000

  Atom       221         222         223         224         225         226         227         228         229         230
 IAtWgt=          16           1           1          16           1           1          16           1           1          16
 AtmWgt=  15.9949146   1.0078250   1.0078250  15.9949146   1.0078250   1.0078250  15.9949146   1.0078250   1.0078250  15.9949146
 NucSpn=           0           1           1           0           1           1           0           1           1           0
 AtZEff=   0.0000000   0.0000000   0.0000000   0.0000000   0.0000000   0.0000000   0.0000000   0.0000000   0.0000000   0.0000000
 NQMom=    0.0000000   0.0000000   0.0000000   0.0000000   0.0000000   0.0000000   0.0000000   0.0000000   0.0000000   0.0000000
 NMagM=    0.0000000   2.7928460   2.7928460   0.0000000   2.7928460   2.7928460   0.0000000   2.7928460   2.7928460   0.0000000
 AtZNuc=   8.0000000   1.0000000   1.0000000   8.0000000   1.0000000   1.0000000   8.0000000   1.0000000   1.0000000   8.0000000

  Atom       231         232         233         234         235         236         237         238         239         240
 IAtWgt=           1           1          16           1           1          16           1           1          16           1
 AtmWgt=   1.0078250   1.0078250  15.9949146   1.0078250   1.0078250  15.9949146   1.0078250   1.0078250  15.9949146   1.0078250
 NucSpn=           1           1           0           1           1           0           1           1           0           1
 AtZEff=   0.0000000   0.0000000   0.0000000   0.0000000   0.0000000   0.0000000   0.0000000   0.0000000   0.0000000   0.0000000
 NQMom=    0.0000000   0.0000000   0.0000000   0.0000000   0.0000000   0.0000000   0.0000000   0.0000000   0.0000000   0.0000000
 NMagM=    2.7928460   2.7928460   0.0000000   2.7928460   2.7928460   0.0000000   2.7928460   2.7928460   0.0000000   2.7928460
 AtZNuc=   1.0000000   1.0000000   8.0000000   1.0000000   1.0000000   8.0000000   1.0000000   1.0000000   8.0000000   1.0000000

  Atom       241         242         243         244         245         246         247         248         249         250
 IAtWgt=           1          16           1           1          16           1           1          16           1           1
 AtmWgt=   1.0078250  15.9949146   1.0078250   1.0078250  15.9949146   1.0078250   1.0078250  15.9949146   1.0078250   1.0078250
 NucSpn=           1           0           1           1           0           1           1           0           1           1
 AtZEff=   0.0000000   0.0000000   0.0000000   0.0000000   0.0000000   0.0000000   0.0000000   0.0000000   0.0000000   0.0000000
 NQMom=    0.0000000   0.0000000   0.0000000   0.0000000   0.0000000   0.0000000   0.0000000   0.0000000   0.0000000   0.0000000
 NMagM=    2.7928460   0.0000000   2.7928460   2.7928460   0.0000000   2.7928460   2.7928460   0.0000000   2.7928460   2.7928460
 AtZNuc=   1.0000000   8.0000000   1.0000000   1.0000000   8.0000000   1.0000000   1.0000000   8.0000000   1.0000000   1.0000000

  Atom       251         252         253         254         255         256         257         258         259         260
 IAtWgt=          16           1           1          16           1           1          16           1           1          16
 AtmWgt=  15.9949146   1.0078250   1.0078250  15.9949146   1.0078250   1.0078250  15.9949146   1.0078250   1.0078250  15.9949146
 NucSpn=           0           1           1           0           1           1           0           1           1           0
 AtZEff=   0.0000000   0.0000000   0.0000000   0.0000000   0.0000000   0.0000000   0.0000000   0.0000000   0.0000000   0.0000000
 NQMom=    0.0000000   0.0000000   0.0000000   0.0000000   0.0000000   0.0000000   0.0000000   0.0000000   0.0000000   0.0000000
 NMagM=    0.0000000   2.7928460   2.7928460   0.0000000   2.7928460   2.7928460   0.0000000   2.7928460   2.7928460   0.0000000
 AtZNuc=   8.0000000   1.0000000   1.0000000   8.0000000   1.0000000   1.0000000   8.0000000   1.0000000   1.0000000   8.0000000

  Atom       261         262         263         264         265         266         267         268         269         270
 IAtWgt=           1           1          16           1           1          16           1           1          16           1
 AtmWgt=   1.0078250   1.0078250  15.9949146   1.0078250   1.0078250  15.9949146   1.0078250   1.0078250  15.9949146   1.0078250
 NucSpn=           1           1           0           1           1           0           1           1           0           1
 AtZEff=   0.0000000   0.0000000   0.0000000   0.0000000   0.0000000   0.0000000   0.0000000   0.0000000   0.0000000   0.0000000
 NQMom=    0.0000000   0.0000000   0.0000000   0.0000000   0.0000000   0.0000000   0.0000000   0.0000000   0.0000000   0.0000000
 NMagM=    2.7928460   2.7928460   0.0000000   2.7928460   2.7928460   0.0000000   2.7928460   2.7928460   0.0000000   2.7928460
 AtZNuc=   1.0000000   1.0000000   8.0000000   1.0000000   1.0000000   8.0000000   1.0000000   1.0000000   8.0000000   1.0000000

  Atom       271         272         273         274         275         276         277         278         279         280
 IAtWgt=           1          16           1           1          16           1           1          16           1           1
 AtmWgt=   1.0078250  15.9949146   1.0078250   1.0078250  15.9949146   1.0078250   1.0078250  15.9949146   1.0078250   1.0078250
 NucSpn=           1           0           1           1           0           1           1           0           1           1
 AtZEff=   0.0000000   0.0000000   0.0000000   0.0000000   0.0000000   0.0000000   0.0000000   0.0000000   0.0000000   0.0000000
 NQMom=    0.0000000   0.0000000   0.0000000   0.0000000   0.0000000   0.0000000   0.0000000   0.0000000   0.0000000   0.0000000
 NMagM=    2.7928460   0.0000000   2.7928460   2.7928460   0.0000000   2.7928460   2.7928460   0.0000000   2.7928460   2.7928460
 AtZNuc=   1.0000000   8.0000000   1.0000000   1.0000000   8.0000000   1.0000000   1.0000000   8.0000000   1.0000000   1.0000000

  Atom       281         282         283         284         285         286         287         288         289         290
 IAtWgt=          16           1           1          16           1           1          16           1           1          16
 AtmWgt=  15.9949146   1.0078250   1.0078250  15.9949146   1.0078250   1.0078250  15.9949146   1.0078250   1.0078250  15.9949146
 NucSpn=           0           1           1           0           1           1           0           1           1           0
 AtZEff=   0.0000000   0.0000000   0.0000000   0.0000000   0.0000000   0.0000000   0.0000000   0.0000000   0.0000000   0.0000000
 NQMom=    0.0000000   0.0000000   0.0000000   0.0000000   0.0000000   0.0000000   0.0000000   0.0000000   0.0000000   0.0000000
 NMagM=    0.0000000   2.7928460   2.7928460   0.0000000   2.7928460   2.7928460   0.0000000   2.7928460   2.7928460   0.0000000
 AtZNuc=   8.0000000   1.0000000   1.0000000   8.0000000   1.0000000   1.0000000   8.0000000   1.0000000   1.0000000   8.0000000

  Atom       291         292         293         294         295         296         297         298         299         300
 IAtWgt=           1           1          16           1           1          16           1           1          16           1
 AtmWgt=   1.0078250   1.0078250  15.9949146   1.0078250   1.0078250  15.9949146   1.0078250   1.0078250  15.9949146   1.0078250
 NucSpn=           1           1           0           1           1           0           1           1           0           1
 AtZEff=   0.0000000   0.0000000   0.0000000   0.0000000   0.0000000   0.0000000   0.0000000   0.0000000   0.0000000   0.0000000
 NQMom=    0.0000000   0.0000000   0.0000000   0.0000000   0.0000000   0.0000000   0.0000000   0.0000000   0.0000000   0.0000000
 NMagM=    2.7928460   2.7928460   0.0000000   2.7928460   2.7928460   0.0000000   2.7928460   2.7928460   0.0000000   2.7928460
 AtZNuc=   1.0000000   1.0000000   8.0000000   1.0000000   1.0000000   8.0000000   1.0000000   1.0000000   8.0000000   1.0000000

  Atom       301         302         303         304         305         306         307         308         309         310
 IAtWgt=           1          16           1           1          16           1           1          16           1           1
 AtmWgt=   1.0078250  15.9949146   1.0078250   1.0078250  15.9949146   1.0078250   1.0078250  15.9949146   1.0078250   1.0078250
 NucSpn=           1           0           1           1           0           1           1           0           1           1
 AtZEff=   0.0000000   0.0000000   0.0000000   0.0000000   0.0000000   0.0000000   0.0000000   0.0000000   0.0000000   0.0000000
 NQMom=    0.0000000   0.0000000   0.0000000   0.0000000   0.0000000   0.0000000   0.0000000   0.0000000   0.0000000   0.0000000
 NMagM=    2.7928460   0.0000000   2.7928460   2.7928460   0.0000000   2.7928460   2.7928460   0.0000000   2.7928460   2.7928460
 AtZNuc=   1.0000000   8.0000000   1.0000000   1.0000000   8.0000000   1.0000000   1.0000000   8.0000000   1.0000000   1.0000000

  Atom       311         312         313         314         315         316         317         318         319         320
 IAtWgt=          16           1           1          16           1           1          16           1           1          16
 AtmWgt=  15.9949146   1.0078250   1.0078250  15.9949146   1.0078250   1.0078250  15.9949146   1.0078250   1.0078250  15.9949146
 NucSpn=           0           1           1           0           1           1           0           1           1           0
 AtZEff=   0.0000000   0.0000000   0.0000000   0.0000000   0.0000000   0.0000000   0.0000000   0.0000000   0.0000000   0.0000000
 NQMom=    0.0000000   0.0000000   0.0000000   0.0000000   0.0000000   0.0000000   0.0000000   0.0000000   0.0000000   0.0000000
 NMagM=    0.0000000   2.7928460   2.7928460   0.0000000   2.7928460   2.7928460   0.0000000   2.7928460   2.7928460   0.0000000
 AtZNuc=   8.0000000   1.0000000   1.0000000   8.0000000   1.0000000   1.0000000   8.0000000   1.0000000   1.0000000   8.0000000

  Atom       321         322         323         324         325         326         327         328         329         330
 IAtWgt=           1           1          16           1           1          16           1           1          16           1
 AtmWgt=   1.0078250   1.0078250  15.9949146   1.0078250   1.0078250  15.9949146   1.0078250   1.0078250  15.9949146   1.0078250
 NucSpn=           1           1           0           1           1           0           1           1           0           1
 AtZEff=   0.0000000   0.0000000   0.0000000   0.0000000   0.0000000   0.0000000   0.0000000   0.0000000   0.0000000   0.0000000
 NQMom=    0.0000000   0.0000000   0.0000000   0.0000000   0.0000000   0.0000000   0.0000000   0.0000000   0.0000000   0.0000000
 NMagM=    2.7928460   2.7928460   0.0000000   2.7928460   2.7928460   0.0000000   2.7928460   2.7928460   0.0000000   2.7928460
 AtZNuc=   1.0000000   1.0000000   8.0000000   1.0000000   1.0000000   8.0000000   1.0000000   1.0000000   8.0000000   1.0000000

  Atom       331         332         333         334         335         336         337         338         339         340
 IAtWgt=           1          16           1           1          16           1           1          16           1           1
 AtmWgt=   1.0078250  15.9949146   1.0078250   1.0078250  15.9949146   1.0078250   1.0078250  15.9949146   1.0078250   1.0078250
 NucSpn=           1           0           1           1           0           1           1           0           1           1
 AtZEff=   0.0000000   0.0000000   0.0000000   0.0000000   0.0000000   0.0000000   0.0000000   0.0000000   0.0000000   0.0000000
 NQMom=    0.0000000   0.0000000   0.0000000   0.0000000   0.0000000   0.0000000   0.0000000   0.0000000   0.0000000   0.0000000
 NMagM=    2.7928460   0.0000000   2.7928460   2.7928460   0.0000000   2.7928460   2.7928460   0.0000000   2.7928460   2.7928460
 AtZNuc=   1.0000000   8.0000000   1.0000000   1.0000000   8.0000000   1.0000000   1.0000000   8.0000000   1.0000000   1.0000000

  Atom       341         342         343         344         345         346         347         348         349         350
 IAtWgt=          16           1           1          16           1           1          16           1           1          16
 AtmWgt=  15.9949146   1.0078250   1.0078250  15.9949146   1.0078250   1.0078250  15.9949146   1.0078250   1.0078250  15.9949146
 NucSpn=           0           1           1           0           1           1           0           1           1           0
 AtZEff=   0.0000000   0.0000000   0.0000000   0.0000000   0.0000000   0.0000000   0.0000000   0.0000000   0.0000000   0.0000000
 NQMom=    0.0000000   0.0000000   0.0000000   0.0000000   0.0000000   0.0000000   0.0000000   0.0000000   0.0000000   0.0000000
 NMagM=    0.0000000   2.7928460   2.7928460   0.0000000   2.7928460   2.7928460   0.0000000   2.7928460   2.7928460   0.0000000
 AtZNuc=   8.0000000   1.0000000   1.0000000   8.0000000   1.0000000   1.0000000   8.0000000   1.0000000   1.0000000   8.0000000

  Atom       351         352         353         354         355         356         357         358         359         360
 IAtWgt=           1           1          16           1           1          16           1           1          16           1
 AtmWgt=   1.0078250   1.0078250  15.9949146   1.0078250   1.0078250  15.9949146   1.0078250   1.0078250  15.9949146   1.0078250
 NucSpn=           1           1           0           1           1           0           1           1           0           1
 AtZEff=   0.0000000   0.0000000   0.0000000   0.0000000   0.0000000   0.0000000   0.0000000   0.0000000   0.0000000   0.0000000
 NQMom=    0.0000000   0.0000000   0.0000000   0.0000000   0.0000000   0.0000000   0.0000000   0.0000000   0.0000000   0.0000000
 NMagM=    2.7928460   2.7928460   0.0000000   2.7928460   2.7928460   0.0000000   2.7928460   2.7928460   0.0000000   2.7928460
 AtZNuc=   1.0000000   1.0000000   8.0000000   1.0000000   1.0000000   8.0000000   1.0000000   1.0000000   8.0000000   1.0000000

  Atom       361         362         363         364         365         366         367         368         369         370
 IAtWgt=           1          16           1           1          16           1           1          16           1           1
 AtmWgt=   1.0078250  15.9949146   1.0078250   1.0078250  15.9949146   1.0078250   1.0078250  15.9949146   1.0078250   1.0078250
 NucSpn=           1           0           1           1           0           1           1           0           1           1
 AtZEff=   0.0000000   0.0000000   0.0000000   0.0000000   0.0000000   0.0000000   0.0000000   0.0000000   0.0000000   0.0000000
 NQMom=    0.0000000   0.0000000   0.0000000   0.0000000   0.0000000   0.0000000   0.0000000   0.0000000   0.0000000   0.0000000
 NMagM=    2.7928460   0.0000000   2.7928460   2.7928460   0.0000000   2.7928460   2.7928460   0.0000000   2.7928460   2.7928460
 AtZNuc=   1.0000000   8.0000000   1.0000000   1.0000000   8.0000000   1.0000000   1.0000000   8.0000000   1.0000000   1.0000000

  Atom       371         372         373         374         375         376         377         378         379         380
 IAtWgt=          16           1           1          16           1           1          16           1           1          16
 AtmWgt=  15.9949146   1.0078250   1.0078250  15.9949146   1.0078250   1.0078250  15.9949146   1.0078250   1.0078250  15.9949146
 NucSpn=           0           1           1           0           1           1           0           1           1           0
 AtZEff=   0.0000000   0.0000000   0.0000000   0.0000000   0.0000000   0.0000000   0.0000000   0.0000000   0.0000000   0.0000000
 NQMom=    0.0000000   0.0000000   0.0000000   0.0000000   0.0000000   0.0000000   0.0000000   0.0000000   0.0000000   0.0000000
 NMagM=    0.0000000   2.7928460   2.7928460   0.0000000   2.7928460   2.7928460   0.0000000   2.7928460   2.7928460   0.0000000
 AtZNuc=   8.0000000   1.0000000   1.0000000   8.0000000   1.0000000   1.0000000   8.0000000   1.0000000   1.0000000   8.0000000

  Atom       381         382         383         384         385
 IAtWgt=           1           1          16           1           1
 AtmWgt=   1.0078250   1.0078250  15.9949146   1.0078250   1.0078250
 NucSpn=           1           1           0           1           1
 AtZEff=   0.0000000   0.0000000   0.0000000   0.0000000   0.0000000
 NQMom=    0.0000000   0.0000000   0.0000000   0.0000000   0.0000000
 NMagM=    2.7928460   2.7928460   0.0000000   2.7928460   2.7928460
 AtZNuc=   1.0000000   1.0000000   8.0000000   1.0000000   1.0000000
 Leave Link  101 at Wed May  9 05:57:45 2018, MaxMem= 14763950080 cpu:        33.3
 (Enter /cm/shared/gaussian/g09.e01/intel64-sandybridge/g09/l103.exe)

 GradGradGradGradGradGradGradGradGradGradGradGradGradGradGradGradGradGrad
 Berny optimization.
 Initialization pass.
 Trust Radius=3.00D-01 FncErr=1.00D-07 GrdErr=1.00D-07
 Number of steps in this run=      2 maximum allowed number of steps=      2.
 GradGradGradGradGradGradGradGradGradGradGradGradGradGradGradGradGradGrad

 Leave Link  103 at Wed May  9 05:57:45 2018, MaxMem= 14763950080 cpu:         3.8
 (Enter /cm/shared/gaussian/g09.e01/intel64-sandybridge/g09/l202.exe)
 Symmetry turned off by external request.
 Stoichiometry    BrH256O128(1-)
 Framework group  C1[X(BrH256O128)]
 Deg. of freedom  1149
 Full point group                 C1      NOp   1
                          Input orientation:                          
 ---------------------------------------------------------------------
 Center     Atomic      Atomic             Coordinates (Angstroms)
 Number     Number       Type             X           Y           Z
 ---------------------------------------------------------------------
      1         35           0       20.000000   20.000000   20.000000
      2          8           0       22.150000   22.030000   19.340000
      3          1           0       22.830000   22.050000   20.020000
      4          1           0       21.560000   21.330000   19.610000
      5          8           0       17.170000   18.840000   19.330000
      6          1           0       18.040000   19.170000   19.540000
      7          1           0       16.650000   19.010000   20.110000
      8          8           0       21.440000   20.190000   17.180000
      9          1           0       22.130000   20.820000   17.390000
     10          1           0       20.860000   20.210000   17.930000
     11          8           0       22.290000   17.770000   19.590000
     12          1           0       22.880000   18.420000   19.200000
     13          1           0       21.680000   18.280000   20.120000
     14          8           0       20.700000   22.060000   23.650000
     15          1           0       20.680000   21.390000   22.970000
     16          1           0       20.300000   22.830000   23.230000
     17          8           0       18.800000   18.610000   23.440000
     18          1           0       18.400000   19.330000   22.960000
     19          1           0       19.700000   18.890000   23.580000
     20          8           0       17.050000   23.450000   20.070000
     21          1           0       17.700000   22.750000   20.000000
     22          1           0       17.510000   24.230000   19.760000
     23          8           0       21.040000   23.350000   17.340000
     24          1           0       20.720000   24.200000   17.620000
     25          1           0       21.310000   22.910000   18.150000
     26          8           0       19.940000   16.230000   22.090000
     27          1           0       19.300000   16.950000   22.130000
     28          1           0       19.420000   15.470000   21.830000
     29          8           0       18.480000   16.080000   18.250000
     30          1           0       18.120000   16.770000   18.820000
     31          1           0       18.300000   16.390000   17.370000
     32          8           0       21.600000   17.570000   16.410000
     33          1           0       21.630000   18.490000   16.140000
     34          1           0       21.680000   17.590000   17.360000
     35          8           0       22.570000   16.650000   22.030000
     36          1           0       22.640000   17.280000   21.310000
     37          1           0       21.690000   16.290000   21.960000
     38          8           0       16.380000   21.150000   16.700000
     39          1           0       17.050000   21.690000   16.280000
     40          1           0       16.800000   20.820000   17.490000
     41          8           0       17.180000   20.660000   23.070000
     42          1           0       17.080000   21.510000   22.650000
     43          1           0       16.460000   20.130000   22.720000
     44          8           0       19.670000   21.930000   15.300000
     45          1           0       20.030000   22.120000   16.160000
     46          1           0       19.900000   22.690000   14.760000
     47          8           0       16.270000   17.550000   17.350000
     48          1           0       16.240000   18.060000   18.170000
     49          1           0       16.840000   18.060000   16.770000
     50          8           0       21.980000   18.920000   24.040000
     51          1           0       22.850000   19.300000   23.900000
     52          1           0       22.080000   18.000000   23.830000
     53          8           0       18.440000   18.560000   15.450000
     54          1           0       18.690000   17.650000   15.330000
     55          1           0       19.270000   19.030000   15.510000
     56          8           0       23.430000   22.470000   22.290000
     57          1           0       23.290000   23.330000   22.700000
     58          1           0       23.590000   21.880000   23.020000
     59          8           0       24.490000   19.060000   18.060000
     60          1           0       24.730000   18.790000   17.180000
     61          1           0       25.150000   18.670000   18.630000
     62          8           0       15.860000   18.420000   22.490000
     63          1           0       15.850000   18.110000   23.400000
     64          1           0       16.010000   17.630000   21.970000
     65          8           0       20.800000   14.730000   17.850000
     66          1           0       19.970000   15.150000   17.610000
     67          1           0       21.160000   15.290000   18.540000
     68          8           0       19.220000   24.180000   22.790000
     69          1           0       19.520000   24.930000   22.280000
     70          1           0       19.020000   24.540000   23.660000
     71          8           0       17.940000   23.750000   16.090000
     72          1           0       18.210000   24.660000   15.970000
     73          1           0       18.770000   23.260000   16.160000
     74          8           0       23.790000   15.140000   19.810000
     75          1           0       23.100000   15.810000   19.890000
     76          1           0       24.610000   15.630000   19.870000
     77          8           0       16.550000   16.150000   21.030000
     78          1           0       15.940000   16.630000   20.480000
     79          1           0       16.370000   15.230000   20.850000
     80          8           0       19.290000   20.710000   25.760000
     81          1           0       18.480000   20.650000   25.250000
     82          1           0       19.910000   21.150000   25.180000
     83          8           0       16.700000   23.500000   23.180000
     84          1           0       17.660000   23.510000   23.230000
     85          1           0       16.470000   24.350000   22.810000
     86          8           0       19.820000   25.230000   18.890000
     87          1           0       19.290000   25.770000   18.300000
     88          1           0       19.780000   25.690000   19.730000
     89          8           0       24.920000   21.580000   17.040000
     90          1           0       24.660000   20.740000   17.420000
     91          1           0       25.430000   22.000000   17.730000
     92          8           0       26.020000   21.020000   21.310000
     93          1           0       25.340000   20.350000   21.330000
     94          1           0       26.650000   20.750000   21.980000
     95          8           0       25.180000   18.260000   21.090000
     96          1           0       25.580000   17.470000   20.740000
     97          1           0       25.010000   18.060000   22.010000
     98          8           0       17.670000   16.170000   24.570000
     99          1           0       17.960000   17.040000   24.270000
    100          1           0       17.710000   16.230000   25.530000
    101          8           0       24.300000   24.610000   20.580000
    102          1           0       23.850000   23.910000   21.040000
    103          1           0       23.640000   24.980000   20.000000
    104          8           0       22.270000   24.880000   23.200000
    105          1           0       22.560000   25.050000   24.090000
    106          1           0       21.490000   24.340000   23.300000
    107          8           0       20.310000   15.460000   24.680000
    108          1           0       20.430000   15.800000   23.790000
    109          1           0       19.370000   15.250000   24.730000
    110          8           0       23.450000   23.260000   15.540000
    111          1           0       24.170000   22.780000   15.950000
    112          1           0       22.660000   22.790000   15.800000
    113          8           0       13.950000   20.210000   21.860000
    114          1           0       13.140000   19.710000   21.760000
    115          1           0       14.610000   19.550000   22.070000
    116          8           0       14.640000   23.330000   18.090000
    117          1           0       14.300000   22.590000   18.590000
    118          1           0       15.580000   23.330000   18.260000
    119          8           0       20.040000   20.000000   13.530000
    120          1           0       20.040000   20.690000   14.180000
    121          1           0       19.210000   20.120000   13.050000
    122          8           0       22.460000   26.130000   19.160000
    123          1           0       22.370000   27.060000   19.360000
    124          1           0       21.570000   25.790000   19.210000
    125          8           0       21.940000   22.640000   26.170000
    126          1           0       22.030000   22.280000   25.280000
    127          1           0       22.370000   23.490000   26.120000
    128          8           0       14.500000   17.230000   20.190000
    129          1           0       13.790000   17.370000   20.810000
    130          1           0       14.250000   17.740000   19.420000
    131          8           0       20.200000   26.360000   21.430000
    132          1           0       20.970000   25.870000   21.700000
    133          1           0       20.520000   27.240000   21.240000
    134          8           0       22.080000   17.000000   13.920000
    135          1           0       22.740000   17.660000   13.710000
    136          1           0       21.910000   17.110000   14.860000
    137          8           0       15.720000   19.280000   14.800000
    138          1           0       15.970000   20.140000   15.130000
    139          1           0       16.490000   18.740000   14.960000
    140          8           0       19.010000   13.650000   21.320000
    141          1           0       18.430000   13.960000   20.630000
    142          1           0       19.840000   13.480000   20.870000
    143          8           0       25.980000   22.720000   19.290000
    144          1           0       25.420000   23.450000   19.540000
    145          1           0       25.960000   22.140000   20.050000
    146          8           0       13.460000   21.210000   19.340000
    147          1           0       13.720000   21.000000   20.240000
    148          1           0       13.430000   20.360000   18.900000
    149          8           0       24.420000   15.140000   23.290000
    150          1           0       23.770000   14.790000   23.910000
    151          1           0       23.890000   15.500000   22.580000
    152          8           0       21.750000   25.610000   15.430000
    153          1           0       22.340000   25.440000   14.700000
    154          1           0       21.720000   24.790000   15.920000
    155          8           0       21.920000   18.670000   26.990000
    156          1           0       22.380000   19.430000   27.350000
    157          1           0       22.120000   18.690000   26.050000
    158          8           0       24.190000   20.120000   14.290000
    159          1           0       24.450000   20.270000   15.200000
    160          1           0       24.550000   19.260000   14.070000
    161          8           0       24.800000   20.960000   24.360000
    162          1           0       24.690000   20.340000   25.080000
    163          1           0       25.610000   21.420000   24.560000
    164          8           0       15.860000   21.970000   25.770000
    165          1           0       15.970000   21.020000   25.790000
    166          1           0       16.160000   22.240000   24.910000
    167          8           0       24.640000   17.290000   15.520000
    168          1           0       25.340000   16.790000   15.110000
    169          1           0       24.160000   16.650000   16.050000
    170          8           0       18.500000   15.710000   15.140000
    171          1           0       17.680000   15.620000   14.650000
    172          1           0       19.020000   14.950000   14.880000
    173          8           0       13.420000   18.970000   17.890000
    174          1           0       12.570000   18.750000   17.490000
    175          1           0       14.060000   18.750000   17.220000
    176          8           0       23.980000   14.890000   16.930000
    177          1           0       23.180000   14.370000   16.860000
    178          1           0       24.050000   15.080000   17.870000
    179          8           0       25.210000   17.530000   23.830000
    180          1           0       24.620000   16.790000   23.680000
    181          1           0       25.320000   17.550000   24.780000
    182          8           0       13.900000   22.820000   22.990000
    183          1           0       13.890000   22.070000   22.390000
    184          1           0       14.820000   23.110000   22.990000
    185          8           0       15.690000   16.010000   15.020000
    186          1           0       15.270000   16.530000   14.340000
    187          1           0       15.750000   16.600000   15.770000
    188          8           0       15.890000   14.300000   23.490000
    189          1           0       15.150000   14.640000   22.990000
    190          1           0       16.560000   14.970000   23.410000
    191          8           0       16.050000   19.150000   25.700000
    192          1           0       16.480000   18.520000   26.280000
    193          1           0       15.280000   18.680000   25.360000
    194          8           0       13.650000   21.960000   15.630000
    195          1           0       14.380000   21.790000   16.220000
    196          1           0       13.920000   22.700000   15.100000
    197          8           0       22.080000   12.870000   20.110000
    198          1           0       22.790000   13.490000   19.950000
    199          1           0       22.490000   12.010000   20.030000
    200          8           0       19.870000   16.870000   27.150000
    201          1           0       20.230000   16.590000   26.310000
    202          1           0       20.200000   17.760000   27.270000
    203          8           0       15.760000   14.140000   17.310000
    204          1           0       15.300000   14.580000   16.590000
    205          1           0       15.560000   14.660000   18.080000
    206          8           0       16.820000   23.800000   13.560000
    207          1           0       16.170000   24.500000   13.690000
[...]
   Z336      44.82430   0.00487   0.00000   0.00633   0.00510  44.82940
   X337      52.93123  -0.00103   0.00000  -0.00359  -0.00356  52.92767
   Y337      41.68736   0.00661   0.00000   0.00461   0.00472  41.69208
   Z337      44.52195   0.00182   0.00000   0.00366   0.00245  44.52440
   X338      30.87813  -0.00720   0.00000  -0.00719  -0.00728  30.87085
   Y338      21.92082  -0.01541   0.00000  -0.01065  -0.01053  21.91029
   Z338      43.06686  -0.00243   0.00000  -0.00942  -0.00897  43.05789
   X339      32.42770   0.00335   0.00000   0.00437   0.00425  32.43195
   Y339      21.08934   0.00256   0.00000   0.00383   0.00394  21.09329
   Z339      42.59443  -0.00126   0.00000  -0.00172  -0.00135  42.59308
   X340      31.16158   0.00458   0.00000   0.00427   0.00416  31.16575
   Y340      23.65937   0.01489   0.00000   0.00996   0.01007  23.66944
   Z340      42.67002   0.00511   0.00000   0.01242   0.01282  42.68284
   X341      20.31456  -0.01716   0.00000  -0.01298  -0.01344  20.30112
   Y341      41.81964  -0.00391   0.00000  -0.00415  -0.00415  41.81549
   Z341      36.09377   0.00944   0.00000   0.00682   0.00750  36.10127
   X342      21.93972   0.00828   0.00000   0.00247   0.00203  21.94175
   Y342      42.53774   0.00187   0.00000  -0.00085  -0.00084  42.53690
   Z342      36.43392  -0.00398   0.00000  -0.00636  -0.00578  36.42814
   X343      20.42794   0.00665   0.00000   0.00807   0.00750  20.43544
   Y343      41.21493   0.00239   0.00000   0.00559   0.00556  41.22049
   Z343      34.39302  -0.00630   0.00000  -0.00377  -0.00308  34.38994
   X344      48.37699  -0.00255   0.00000  -0.00276  -0.00328  48.37371
   Y344      23.45150  -0.01341   0.00000  -0.00903  -0.00908  23.44242
   Z344      35.52685  -0.00421   0.00000  -0.00178  -0.00237  35.52448
   X345      49.45413   0.00023   0.00000  -0.00414  -0.00470  49.44943
   Y345      24.75541   0.00957   0.00000   0.00840   0.00833  24.76375
   Z345      34.88434   0.00059   0.00000   0.00359   0.00291  34.88725
   X346      47.41323  -0.00102   0.00000   0.00267   0.00222  47.41545
   Y346      24.26408   0.00247   0.00000  -0.00156  -0.00159  24.26250
   Z346      36.83076   0.01028   0.00000   0.01144   0.01088  36.84165
   X347      24.60423  -0.00219   0.00000  -0.00487  -0.00465  24.59958
   Y347      44.95658   0.00785   0.00000   0.00550   0.00572  44.96230
   Z347      47.67779   0.03368   0.00000   0.02685   0.02723  47.70502
   X348      24.94438   0.00614   0.00000   0.00729   0.00745  24.95184
   Y348      43.46370  -0.00686   0.00000   0.00386   0.00406  43.46776
   Z348      46.73293  -0.01376   0.00000  -0.00839  -0.00801  46.72492
   X349      24.13180  -0.00642   0.00000  -0.00727  -0.00713  24.12468
   Y349      46.18491   0.00323   0.00000  -0.00280  -0.00261  46.18230
   Z349      46.44947  -0.01174   0.00000  -0.00553  -0.00515  46.44432
   X350      50.11554  -0.00242   0.00000  -0.00341  -0.00317  50.11237
   Y350      43.53929  -0.01196   0.00000  -0.00403  -0.00385  43.53544
   Z350      48.13132   0.00910   0.00000   0.00461   0.00352  48.13485
   X351      50.64466   0.00341   0.00000   0.00391   0.00423  50.64889
   Y351      44.57864   0.00308   0.00000   0.00192   0.00213  44.58077
   Z351      49.51082   0.00528   0.00000   0.00521   0.00407  49.51490
   X352      50.07774  -0.00132   0.00000  -0.00186  -0.00170  50.07605
   Y352      44.65423   0.01038   0.00000   0.00412   0.00428  44.65851
   Z352      46.71403  -0.02116   0.00000  -0.01799  -0.01910  46.69493
   X353      42.99127  -0.00001   0.00000   0.00335   0.00372  42.99499
   Y353      47.79117  -0.00805   0.00000  -0.00304  -0.00280  47.78838
   Z353      50.19113  -0.01230   0.00000  -0.01383  -0.01458  50.17655
   X354      42.38656  -0.00466   0.00000  -0.00500  -0.00460  42.38196
   Y354      49.37854   0.00660   0.00000   0.00074   0.00099  49.37953
   Z354      50.79584   0.00422   0.00000   0.00358   0.00284  50.79868
   X355      44.76761   0.00903   0.00000   0.00788   0.00827  44.77588
   Y355      47.81007   0.00130   0.00000   0.00133   0.00157  47.81164
   Z355      50.53128   0.00286   0.00000   0.00374   0.00288  50.53416
   X356      31.57732  -0.00483   0.00000  -0.00151  -0.00110  31.57622
   Y356      29.95216   0.00917   0.00000   0.00562   0.00590  29.95806
   Z356      51.34386  -0.00427   0.00000  -0.00333  -0.00308  51.34078
   X357      32.97572   0.01162   0.00000   0.01001   0.01047  32.98619
   Y357      29.32855  -0.00172   0.00000   0.00149   0.00179  29.33033
   Z357      52.30762   0.00483   0.00000   0.00164   0.00183  52.30945
   X358      30.85923  -0.00394   0.00000  -0.00492  -0.00456  30.85467
   Y358      28.45928  -0.00425   0.00000  -0.00248  -0.00221  28.45706
   Z358      50.60687  -0.00028   0.00000   0.00151   0.00184  50.60870
   X359      49.52972   0.00694   0.00000   0.00460   0.00417  49.53389
   Y359      52.06195   0.00330   0.00000   0.00361   0.00357  52.06553
   Z359      36.41502   0.00112   0.00000   0.00592   0.00471  36.41973
   X360      48.60376  -0.00285   0.00000  -0.00051  -0.00089  48.60286
   Y360      50.72025  -0.00562   0.00000  -0.00470  -0.00472  50.71553
   Z360      37.20871   0.00295   0.00000   0.00280   0.00167  37.21038
   X361      48.26361  -0.00518   0.00000  -0.00474  -0.00519  48.25841
   Y361      53.25248   0.00010   0.00000  -0.00260  -0.00264  53.24984
   Z361      35.90480  -0.00307   0.00000  -0.00338  -0.00454  35.90025
   X362      51.41945   0.02247   0.00000   0.01055   0.01057  51.43002
   Y362      27.36323  -0.00589   0.00000  -0.00272  -0.00260  27.36063
   Z362      44.78651   0.00778   0.00000   0.00787   0.00702  44.79353
   X363      51.89188   0.00033   0.00000   0.00218   0.00213  51.89401
   Y363      25.92704   0.00433   0.00000   0.00493   0.00503  25.93207
   Z363      43.76606  -0.00013   0.00000  -0.00097  -0.00182  43.76424
   X364      49.73759  -0.02422   0.00000  -0.01524  -0.01525  49.72234
   Y364      27.74118   0.00565   0.00000   0.00441   0.00453  27.74571
   Z364      44.29518  -0.00561   0.00000  -0.00085  -0.00161  44.29357
   X365      51.13599   0.00319   0.00000   0.00266   0.00201  51.13799
   Y365      27.49552   0.00597   0.00000   0.00513   0.00502  27.50054
   Z365      33.12690   0.00317   0.00000  -0.00432  -0.00515  33.12175
   X366      49.92656  -0.01421   0.00000  -0.01502  -0.01575  49.91081
   Y366      27.51441  -0.00411   0.00000  -0.00720  -0.00733  27.50709
   Z366      31.78519  -0.00986   0.00000  -0.00675  -0.00751  31.77768
   X367      52.28872   0.00725   0.00000   0.00787   0.00718  52.29590
   Y367      26.17271  -0.00447   0.00000  -0.00206  -0.00218  26.17053
   Z367      32.69226  -0.00210   0.00000  -0.00135  -0.00222  32.69004
   X368      32.46549  -0.00466   0.00000  -0.00387  -0.00323  32.46226
   Y368      42.36766   0.00222   0.00000   0.00241   0.00275  42.37041
   Z368      54.93434   0.00605   0.00000   0.00488   0.00484  54.93918
   X369      33.56154   0.00104   0.00000  -0.00314  -0.00257  33.55897
   Y369      41.36611  -0.00793   0.00000  -0.00981  -0.00948  41.35662
   Z369      53.89499  -0.00035   0.00000   0.00382   0.00374  53.89873
   X370      32.74895   0.00205   0.00000   0.00244   0.00304  32.75200
   Y370      44.06841   0.00285   0.00000   0.00151   0.00185  44.07026
   Z370      54.36742  -0.00443   0.00000  -0.00626  -0.00635  54.36107
   X371      35.79141  -0.01860   0.00000  -0.01109  -0.01109  35.78032
   Y371      53.63043  -0.00442   0.00000   0.00382   0.00394  53.63437
   Z371      43.78495   0.01598   0.00000   0.01767   0.01722  43.80218
   X372      37.37878   0.01656   0.00000   0.01268   0.01273  37.39151
   Y372      53.51704  -0.00309   0.00000  -0.00486  -0.00472  53.51233
   Z372      44.63533   0.00983   0.00000   0.00978   0.00925  44.64458
   X373      36.13156   0.00195   0.00000  -0.00179  -0.00187  36.12969
   Y373      54.61309   0.00823   0.00000   0.00189   0.00199  54.61507
   Z373      42.31097  -0.01609   0.00000  -0.00939  -0.00987  42.30110
   X374      49.54862   0.01041   0.00000   0.00534   0.00526  49.55388
   Y374      51.09819  -0.01571   0.00000  -0.01307  -0.01300  51.08520
   Z374      42.42435   0.00574   0.00000   0.00476   0.00356  42.42792
   X375      49.94546   0.00031   0.00000   0.00070   0.00062  49.94608
   Y375      52.85564   0.00696   0.00000  -0.00005   0.00003  52.85567
   Z375      42.34876  -0.00332   0.00000  -0.00318  -0.00443  42.34433
   X376      47.88566  -0.01356   0.00000  -0.01068  -0.01080  47.87486
   Y376      50.96591   0.00848   0.00000   0.01244   0.01250  50.97842
   Z376      41.74405  -0.00215   0.00000   0.00251   0.00142  41.74547
   X377      24.35857   0.01121   0.00000   0.01253   0.01208  24.37065
   Y377      48.77383   0.02891   0.00000   0.01877   0.01877  48.79260
   Z377      36.11267   0.01112   0.00000   0.00631   0.00662  36.11929
   X378      24.22629  -0.00595   0.00000  -0.00662  -0.00715  24.21914
   Y378      47.71558  -0.01516   0.00000  -0.00624  -0.00627  47.70932
   Z378      34.67647  -0.01674   0.00000  -0.00854  -0.00820  34.66827
   X379      23.88614  -0.00257   0.00000  -0.00005  -0.00042  23.88571
   Y379      47.71558  -0.01360   0.00000  -0.01228  -0.01225  47.70333
   Z379      37.51106   0.00327   0.00000  -0.00266  -0.00230  37.50876
   X380      41.97082  -0.00760   0.00000  -0.00523  -0.00562  41.96520
   Y380      54.44301   0.00003   0.00000   0.00344   0.00343  54.44644
   Z380      37.01973   0.00151   0.00000   0.00515   0.00433  37.02406
   X381      41.36611   0.00307   0.00000   0.00592   0.00547  41.37158
   Y381      55.86030   0.00026   0.00000  -0.00087  -0.00090  55.85941
   Z381      36.05597  -0.00753   0.00000  -0.01146  -0.01228  36.04370
   X382      43.67157   0.00539   0.00000   0.00188   0.00152  43.67309
   Y382      54.87765   0.00312   0.00000   0.00329   0.00328  54.88093
   Z382      37.47327   0.00813   0.00000   0.01250   0.01157  37.48484
   X383      24.33967  -0.00313   0.00000  -0.00137  -0.00137  24.33830
   Y383      48.60376   0.00255   0.00000   0.00813   0.00828  48.61203
   Z383      43.86054   0.00510   0.00000   0.00655   0.00687  43.86741
   X384      23.54599  -0.00267   0.00000  -0.00260  -0.00263  23.54335
   Y384      50.07774   0.00748   0.00000   0.00954   0.00968  50.08742
   Z384      43.16134  -0.00073   0.00000   0.00006   0.00040  43.16174
   X385      26.11602   0.00699   0.00000   0.00596   0.00595  26.12197
   Y385      48.94391   0.00121   0.00000   0.00105   0.00119  48.94510
   Z385      43.78495  -0.00253   0.00000  -0.00427  -0.00406  43.78090
         Item               Value     Threshold  Converged?
 Maximum Force            0.039644     0.000450     NO 
 RMS     Force            0.010706     0.000300     NO 
 Maximum Displacement     0.030774     0.001800     NO 
 RMS     Displacement     0.008816     0.001200     NO 
 Predicted change in Energy=-7.552385D-02
 GradGradGradGradGradGradGradGradGradGradGradGradGradGradGradGradGradGrad

 Leave Link  103 at Wed May  9 08:28:40 2018, MaxMem= 14763950080 cpu:      3918.3
 (Enter /cm/shared/gaussian/g09.e01/intel64-sandybridge/g09/l9999.exe)
 1\1\GINC-POPLE01\Force\RPBE1PBE\CC-pVDZ\Br1H256O128(1-)\M.PELUSO\09-Ma
 y-2018\0\\#p PBE1PBE/cc-pvDZ force Counterpoise=2 noSymm\\forces on ch
 loride comput - NWATER: 128\\-1,1\Br,20.,20.,20.\O,22.15,22.03,19.34\H
 ,22.83,22.05,20.02\H,21.56,21.33,19.61\O,17.17,18.84,19.33\H,18.04,19.
 17,19.54\H,16.65,19.01,20.11\O,21.44,20.19,17.18\H,22.13,20.82,17.39\H
 ,20.86,20.21,17.93\O,22.29,17.77,19.59\H,22.88,18.42,19.2\H,21.68,18.2
 8,20.12\O,20.7,22.06,23.65\H,20.68,21.39,22.97\H,20.3,22.83,23.23\O,18
 .8,18.61,23.44\H,18.4,19.33,22.96\H,19.7,18.89,23.58\O,17.05,23.45,20.
 07\H,17.7,22.75,20.\H,17.51,24.23,19.76\O,21.04,23.35,17.34\H,20.72,24
 .2,17.62\H,21.31,22.91,18.15\O,19.94,16.23,22.09\H,19.3,16.95,22.13\H,
 19.42,15.47,21.83\O,18.48,16.08,18.25\H,18.12,16.77,18.82\H,18.3,16.39
 ,17.37\O,21.6,17.57,16.41\H,21.63,18.49,16.14\H,21.68,17.59,17.36\O,22
 .57,16.65,22.03\H,22.64,17.28,21.31\H,21.69,16.29,21.96\O,16.38,21.15,
 16.7\H,17.05,21.69,16.28\H,16.8,20.82,17.49\O,17.18,20.66,23.07\H,17.0
 8,21.51,22.65\H,16.46,20.13,22.72\O,19.67,21.93,15.3\H,20.03,22.12,16.
 16\H,19.9,22.69,14.76\O,16.27,17.55,17.35\H,16.24,18.06,18.17\H,16.84,
 18.06,16.77\O,21.98,18.92,24.04\H,22.85,19.3,23.9\H,22.08,18.,23.83\O,
 18.44,18.56,15.45\H,18.69,17.65,15.33\H,19.27,19.03,15.51\O,23.43,22.4
 7,22.29\H,23.29,23.33,22.7\H,23.59,21.88,23.02\O,24.49,19.06,18.06\H,2
 4.73,18.79,17.18\H,25.15,18.67,18.63\O,15.86,18.42,22.49\H,15.85,18.11
 ,23.4\H,16.01,17.63,21.97\O,20.8,14.73,17.85\H,19.97,15.15,17.61\H,21.
 16,15.29,18.54\O,19.22,24.18,22.79\H,19.52,24.93,22.28\H,19.02,24.54,2
 3.66\O,17.94,23.75,16.09\H,18.21,24.66,15.97\H,18.77,23.26,16.16\O,23.
 79,15.14,19.81\H,23.1,15.81,19.89\H,24.61,15.63,19.87\O,16.55,16.15,21
 .03\H,15.94,16.63,20.48\H,16.37,15.23,20.85\O,19.29,20.71,25.76\H,18.4
 8,20.65,25.25\H,19.91,21.15,25.18\O,16.7,23.5,23.18\H,17.66,23.51,23.2
 3\H,16.47,24.35,22.81\O,19.82,25.23,18.89\H,19.29,25.77,18.3\H,19.78,2
 5.69,19.73\O,24.92,21.58,17.04\H,24.66,20.74,17.42\H,25.43,22.,17.73\O
 ,26.02,21.02,21.31\H,25.34,20.35,21.33\H,26.65,20.75,21.98\O,25.18,18.
 26,21.09\H,25.58,17.47,20.74\H,25.01,18.06,22.01\O,17.67,16.17,24.57\H
 ,17.96,17.04,24.27\H,17.71,16.23,25.53\O,24.3,24.61,20.58\H,23.85,23.9
 1,21.04\H,23.64,24.98,20.\O,22.27,24.88,23.2\H,22.56,25.05,24.09\H,21.
 49,24.34,23.3\O,20.31,15.46,24.68\H,20.43,15.8,23.79\H,19.37,15.25,24.
 73\O,23.45,23.26,15.54\H,24.17,22.78,15.95\H,22.66,22.79,15.8\O,13.95,
 20.21,21.86\H,13.14,19.71,21.76\H,14.61,19.55,22.07\O,14.64,23.33,18.0
 9\H,14.3,22.59,18.59\H,15.58,23.33,18.26\O,20.04,20.,13.53\H,20.04,20.
 69,14.18\H,19.21,20.12,13.05\O,22.46,26.13,19.16\H,22.37,27.06,19.36\H
 ,21.57,25.79,19.21\O,21.94,22.64,26.17\H,22.03,22.28,25.28\H,22.37,23.
 49,26.12\O,14.5,17.23,20.19\H,13.79,17.37,20.81\H,14.25,17.74,19.42\O,
 20.2,26.36,21.43\H,20.97,25.87,21.7\H,20.52,27.24,21.24\O,22.08,17.,13
 .92\H,22.74,17.66,13.71\H,21.91,17.11,14.86\O,15.72,19.28,14.8\H,15.97
 ,20.14,15.13\H,16.49,18.74,14.96\O,19.01,13.65,21.32\H,18.43,13.96,20.
 63\H,19.84,13.48,20.87\O,25.98,22.72,19.29\H,25.42,23.45,19.54\H,25.96
 ,22.14,20.05\O,13.46,21.21,19.34\H,13.72,21.,20.24\H,13.43,20.36,18.9\
 O,24.42,15.14,23.29\H,23.77,14.79,23.91\H,23.89,15.5,22.58\O,21.75,25.
 61,15.43\H,22.34,25.44,14.7\H,21.72,24.79,15.92\O,21.92,18.67,26.99\H,
 22.38,19.43,27.35\H,22.12,18.69,26.05\O,24.19,20.12,14.29\H,24.45,20.2
 7,15.2\H,24.55,19.26,14.07\O,24.8,20.96,24.36\H,24.69,20.34,25.08\H,25
 .61,21.42,24.56\O,15.86,21.97,25.77\H,15.97,21.02,25.79\H,16.16,22.24,
 24.91\O,24.64,17.29,15.52\H,25.34,16.79,15.11\H,24.16,16.65,16.05\O,18
 .5,15.71,15.14\H,17.68,15.62,14.65\H,19.02,14.95,14.88\O,13.42,18.97,1
 7.89\H,12.57,18.75,17.49\H,14.06,18.75,17.22\O,23.98,14.89,16.93\H,23.
 18,14.37,16.86\H,24.05,15.08,17.87\O,25.21,17.53,23.83\H,24.62,16.79,2
 3.68\H,25.32,17.55,24.78\O,13.9,22.82,22.99\H,13.89,22.07,22.39\H,14.8
 2,23.11,22.99\O,15.69,16.01,15.02\H,15.27,16.53,14.34\H,15.75,16.6,15.
 77\O,15.89,14.3,23.49\H,15.15,14.64,22.99\H,16.56,14.97,23.41\O,16.05,
 19.15,25.7\H,16.48,18.52,26.28\H,15.28,18.68,25.36\O,13.65,21.96,15.63
 \H,14.38,21.79,16.22\H,13.92,22.7,15.1\O,22.08,12.87,20.11\H,22.79,13.
 49,19.95\H,22.49,12.01,20.03\O,19.87,16.87,27.15\H,20.23,16.59,26.31\H
 ,20.2,17.76,27.27\O,15.76,14.14,17.31\H,15.3,14.58,16.59\H,15.56,14.66
 ,18.08\O,16.82,23.8,13.56\H,16.17,24.5,13.69\H,17.05,23.53,14.45\O,18.
 15,12.38,18.07\H,17.44,12.82,17.6\H,18.81,13.06,18.2\O,26.49,16.39,19.
 4\H,26.46,15.82,18.63\H,26.99,17.16,19.12\O,18.6,23.82,26.66\H,18.72,2
 2.88,26.76\H,17.79,23.92,26.15\O,20.,13.22,15.48\H,20.47,12.45,15.16\H
 ,20.67,13.78,15.85\O,18.95,26.19,15.42\H,18.87,26.93,14.83\H,19.87,25.
 93,15.36\O,18.77,19.84,28.34\H,18.68,18.89,28.2\H,19.16,20.16,27.53\O,
 18.04,27.2,18.6\H,18.14,27.8,17.86\H,17.17,27.41,18.96\O,22.41,20.3,12
 .17\H,21.58,20.,12.55\H,23.04,20.24,12.88\O,17.47,26.28,23.79\H,16.61,
 26.61,24.05\H,17.94,27.06,23.49\O,13.85,18.2,24.55\H,13.1,18.58,25.\H,
 13.5,17.92,23.7\O,26.5,24.2,22.75\H,26.23,25.09,22.55\H,26.53,23.75,21
 .9\O,19.58,25.79,25.2\H,18.74,26.18,24.93\H,19.34,25.17,25.89\O,15.4,1
 3.71,20.48\H,14.61,14.05,20.06\H,15.18,12.82,20.73\O,19.68,16.31,12.21
 \H,18.86,16.79,12.3\H,20.16,16.52,13.01\O,19.92,12.33,24.04\H,19.75,12
 .91,23.29\H,19.19,12.49,24.63\O,22.75,14.35,25.44\H,21.83,14.47,25.22\
 H,22.74,14.09,26.36\O,23.36,27.76,22.4\H,22.69,27.96,23.05\H,23.19,26.
 85,22.15\O,17.28,17.81,12.1\H,16.43,18.13,11.79\H,17.62,18.52,12.65\O,
 27.69,18.68,18.56\H,27.72,18.34,17.67\H,28.31,19.4,18.57\O,17.98,20.81
 ,12.07\H,17.32,21.07,11.43\H,18.32,21.64,12.41\O,25.38,25.58,16.13\H,2
 4.85,25.01,15.57\H,25.22,25.27,17.02\O,24.72,22.82,12.93\H,25.36,22.17
 ,12.63\H,24.41,22.48,13.77\O,20.6,23.72,12.91\H,21.18,24.39,13.27\H,21
 .19,23.03,12.61\O,27.3,21.34,15.12\H,26.75,21.46,15.89\H,27.85,22.13,1
 5.09\O,24.74,12.87,21.83\H,25.52,12.53,22.28\H,24.65,13.77,22.15\O,21.
 38,27.55,24.5\H,21.49,27.9,25.38\H,20.85,26.76,24.62\O,12.32,17.85,22.
 24\H,11.95,17.82,23.12\H,11.81,17.22,21.74\O,17.96,13.43,25.61\H,17.36
 ,12.81,26.03\H,17.4,14.15,25.32\O,12.35,24.04,16.7\H,12.17,23.51,15.92
 \H,13.25,23.84,16.93\O,27.13,18.73,15.84\H,26.82,18.19,15.11\H,27.33,1
 9.58,15.45\O,12.46,19.43,14.79\H,13.05,20.01,15.27\H,13.01,19.05,14.1\
 O,15.69,26.04,15.34\H,15.62,26.33,14.43\H,16.58,26.3,15.6\O,21.25,21.5
 6,28.94\H,21.58,21.83,28.09\H,20.37,21.21,28.77\O,25.03,19.31,26.76\H,
 25.06,19.77,27.59\H,25.35,18.43,26.96\O,15.17,27.72,18.8\H,15.03,26.78
 ,18.93\H,14.41,28.02,18.3\O,29.07,22.02,20.23\H,29.23,21.44,20.98\H,28
 .36,21.6,19.75\O,12.12,24.06,21.25\H,12.41,24.67,21.93\H,12.26,23.19,2
 1.63\O,28.14,17.33,24.07\H,27.9,16.41,24.14\H,27.38,17.75,23.67\O,21.8
 7,28.27,15.93\H,22.66,28.67,16.29\H,22.03,27.33,15.97\O,15.43,25.07,26
 .4\H,14.7,25.39,25.87\H,15.55,24.16,26.12\O,19.29,29.24,20.72\H,19.91,
 29.5,20.05\H,18.76,28.55,20.31\O,12.96,20.01,26.46\H,13.65,20.28,25.86
 \H,12.74,20.81,26.95\O,27.81,21.12,23.54\H,28.64,20.69,23.72\H,28.01,2
 2.06,23.56\O,16.34,11.6,22.79\H,17.16,11.16,22.54\H,16.49,12.52,22.58\
 O,10.75,22.13,19.1\H,11.61,22.51,19.28\H,10.81,21.81,18.2\O,25.6,12.41
 ,18.8\H,26.17,13.1,18.46\H,25.09,12.84,19.49\O,13.02,23.79,25.23\H,13.
 2,23.,24.73\H,12.77,24.44,24.58\O,26.52,23.04,25.47\H,26.8,23.59,26.2\
 H,26.5,23.63,24.72\O,22.75,25.29,26.56\H,22.43,26.13,26.88\H,23.69,25.
 3,26.74\O,16.71,15.85,27.17\H,17.45,15.52,27.68\H,16.33,15.06,26.78\O,
 26.21,27.55,19.27\H,25.72,26.84,19.69\H,25.54,28.18,19.\O,27.21,14.48,
 23.7\H,27.46,13.72,23.16\H,26.32,14.68,23.44\O,27.06,14.55,17.53\H,26.
 42,14.56,16.82\H,27.67,13.85,17.3\O,17.18,22.42,29.07\H,17.76,21.89,28
 .52\H,17.33,23.32,28.77\O,18.94,28.38,23.17\H,19.78,28.32,23.62\H,19.1
 2,28.9,22.39\O,26.22,27.04,22.45\H,26.43,27.97,22.41\H,25.34,26.97,22.
 09\O,12.89,25.81,19.11\H,12.82,25.25,18.35\H,12.64,25.25,19.85\O,22.21
 ,28.81,19.59\H,21.89,29.56,19.08\H,23.11,29.04,19.83\O,12.88,25.72,23.
 21\H,12.46,26.5,22.84\H,13.82,25.9,23.17\\Version=ES64L-G09RevE.01\HF=
 -9773.4150981\RMSD=1.736e-09\RMSF=1.071e-02\Dipole=1.4567914,8.8479372
 ,2.3294315\Quadrupole=-138.8021126,416.0175985,-277.2154859,-1017.8428
 189,-1288.4720787,-1063.782279\PG=C01 [X(Br1H256O128)]\\@


 THE CHYMISTS ARE A STRANGE CLASS OF MORTALS IMPELLED
 BY AN ALMOST INSANE IMPULSE TO SEEK THEIR PLEASURE
 AMONG SMOKE AND VAPOR, SOOT AND FLAME, POISONS AND
 POVERTY; YET AMONG ALL THESE EVILS I SEEM TO LIVE
 SO SWEETLY, THAT I MAY DIE IF I WOULD CHANGE PLACES
 WITH THE PERSIAN KING.
   --  JOHANN JOACHIM BECHER, 1635-1682
 ACTA LABORATORII CHYMICA MONACENSIS, 1669
 Job cpu time:       6 days 14 hours 19 minutes 30.9 seconds.
 File lengths (MBytes):  RWF=   7285 Int=      0 D2E=      0 Chk=   2411 Scr=      1
 Normal termination of Gaussian 09 at Wed May  9 08:29:08 2018.
