 Entering Gaussian System, Link 0=/cm/shared/gaussian/g09.e01/intel64-sandybridge/g09/g09
 Initial command:
 /cm/shared/gaussian/g09.e01/intel64-sandybridge/g09/l1.exe "/local/scratch/m.peluso/128_wat/Gau-50608.inp" -scrdir="/local/scratch/m.peluso/128_wat/"
 Entering Link 1 = /cm/shared/gaussian/g09.e01/intel64-sandybridge/g09/l1.exe PID=     50609.
  
 Copyright (c) 1988,1990,1992,1993,1995,1998,2003,2009,2015,
            Gaussian, Inc.  All Rights Reserved.
  
 This is part of the Gaussian(R) 09 program.  It is based on
 the Gaussian(R) 03 system (copyright 2003, Gaussian, Inc.),
 the Gaussian(R) 98 system (copyright 1998, Gaussian, Inc.),
 the Gaussian(R) 94 system (copyright 1995, Gaussian, Inc.),
 the Gaussian 92(TM) system (copyright 1992, Gaussian, Inc.),
 the Gaussian 90(TM) system (copyright 1990, Gaussian, Inc.),
 the Gaussian 88(TM) system (copyright 1988, Gaussian, Inc.),
 the Gaussian 86(TM) system (copyright 1986, Carnegie Mellon
 University), and the Gaussian 82(TM) system (copyright 1983,
 Carnegie Mellon University). Gaussian is a federally registered
 trademark of Gaussian, Inc.
  
 This software contains proprietary and confidential information,
 including trade secrets, belonging to Gaussian, Inc.
  
 This software is provided under written license and may be
 used, copied, transmitted, or stored only in accord with that
 written license.
  
 The following legend is applicable only to US Government
 contracts under FAR:
  
                    RESTRICTED RIGHTS LEGEND
  
 Use, reproduction and disclosure by the US Government is
 subject to restrictions as set forth in subparagraphs (a)
 and (c) of the Commercial Computer Software - Restricted
 Rights clause in FAR 52.227-19.
  
 Gaussian, Inc.
 340 Quinnipiac St., Bldg. 40, Wallingford CT 06492
  
  
 ---------------------------------------------------------------
 Warning -- This program may not be used in any manner that
 competes with the business of Gaussian, Inc. or will provide
 assistance to any competitor of Gaussian, Inc.  The licensee
 of this program is prohibited from giving any competitor of
 Gaussian, Inc. access to this program.  By using this program,
 the user acknowledges that Gaussian, Inc. is engaged in the
 business of creating and licensing software in the field of
 computational chemistry and represents and warrants to the
 licensee that it is not a competitor of Gaussian, Inc. and that
 it will not use this program in any manner prohibited above.
 ---------------------------------------------------------------
  

 Cite this work as:
 Gaussian 09, Revision E.01,
 M. J. Frisch, G. W. Trucks, H. B. Schlegel, G. E. Scuseria, 
 M. A. Robb, J. R. Cheeseman, G. Scalmani, V. Barone, B. Mennucci, 
 G. A. Petersson, H. Nakatsuji, M. Caricato, X. Li, H. P. Hratchian, 
 A. F. Izmaylov, J. Bloino, G. Zheng, J. L. Sonnenberg, M. Hada, 
 M. Ehara, K. Toyota, R. Fukuda, J. Hasegawa, M. Ishida, T. Nakajima, 
 Y. Honda, O. Kitao, H. Nakai, T. Vreven, J. A. Montgomery, Jr., 
 J. E. Peralta, F. Ogliaro, M. Bearpark, J. J. Heyd, E. Brothers, 
 K. N. Kudin, V. N. Staroverov, T. Keith, R. Kobayashi, J. Normand, 
 K. Raghavachari, A. Rendell, J. C. Burant, S. S. Iyengar, J. Tomasi, 
 M. Cossi, N. Rega, J. M. Millam, M. Klene, J. E. Knox, J. B. Cross, 
 V. Bakken, C. Adamo, J. Jaramillo, R. Gomperts, R. E. Stratmann, 
 O. Yazyev, A. J. Austin, R. Cammi, C. Pomelli, J. W. Ochterski, 
 R. L. Martin, K. Morokuma, V. G. Zakrzewski, G. A. Voth, 
 P. Salvador, J. J. Dannenberg, S. Dapprich, A. D. Daniels, 
 O. Farkas, J. B. Foresman, J. V. Ortiz, J. Cioslowski, 
 and D. J. Fox, Gaussian, Inc., Wallingford CT, 2013.
 
 ******************************************
 Gaussian 09:  ES64L-G09RevE.01 30-Nov-2015
                 4-May-2018 
 ******************************************
 %Mem=110GB
 %NProcShared=64
 Will use up to   64 processors via shared memory.
 %chk=snap12.chk
 ----------------------------------------------
 #p PBE1PBE/cc-pvDZ force Counterpoise=2 noSymm
 ----------------------------------------------
 1/10=7,30=1,38=1,62=2/1,3;
 2/12=2,15=1,17=6,18=5,40=1/2;
 1/10=7,30=1,38=1,53=2,62=2,63=101/22;
 3/5=16,11=2,16=1,25=1,30=1,71=1,74=-13/1,2,3;
 4//1;
 5/5=2,38=5/2;
 6/7=2,8=2,9=2,10=2,28=1/1;
 7/7=1,29=1,30=1,33=-1/1,2,3,16;
 1/10=7,30=1,53=2,62=2,63=101/22;
 3/5=7,6=11,11=2,16=1,25=1,30=1,71=1,74=-13,82=7/1,2,3;
 4//1;
 5/5=2,38=5/2;
 6/7=2,8=2,9=2,10=2,28=1/1;
 7/7=1,29=1,30=1,33=-1/1,2,3,16;
 1/10=7,30=1,53=2,62=2,63=101/22(-5);
 7/9=1,29=1,44=-1/16;
 1/10=7,30=1,62=2/3;
 99//99;
 Leave Link    1 at Fri May  4 14:25:19 2018, MaxMem= 14763950080 cpu:         6.0
 (Enter /cm/shared/gaussian/g09.e01/intel64-sandybridge/g09/l101.exe)
 ---------------------------------------
 forces on chloride comput - NWATER: 128
 ---------------------------------------
 Symbolic Z-matrix:
 Charge = -1 Multiplicity = 1 in supermolecule
 Charge = -1 Multiplicity = 1 in fragment      1.
 Charge =  0 Multiplicity = 1 in fragment      2.
 Br(Fragment=1)        20.       20.       20. 
 O(Fragment=2)         21.32     20.56     22.69 
 H(Fragment=2)         21.92     19.84     22.88 
 H(Fragment=2)         20.83     20.27     21.93 
 O(Fragment=2)         18.11     22.       21.57 
 H(Fragment=2)         18.83     21.54     21.14 
 H(Fragment=2)         18.16     22.89     21.22 
 O(Fragment=2)         20.54     17.96     17.58 
 H(Fragment=2)         20.53     18.48     18.38 
 H(Fragment=2)         20.56     18.61     16.87 
 O(Fragment=2)         16.92     19.02     19.73 
 H(Fragment=2)         17.79     19.36     19.96 
 H(Fragment=2)         16.54     18.74     20.56 
 O(Fragment=2)         20.33     16.68     20.54 
 H(Fragment=2)         20.45     17.61     20.34 
 H(Fragment=2)         19.39     16.58     20.63 
 O(Fragment=2)         18.65     22.88     18.55 
 H(Fragment=2)         19.27     23.32     17.97 
 H(Fragment=2)         19.09     22.07     18.8 
 O(Fragment=2)         21.89     22.14     18.21 
 H(Fragment=2)         21.79     21.79     19.09 
 H(Fragment=2)         22.77     21.87     17.94 
 O(Fragment=2)         19.53     19.08     24.24 
 H(Fragment=2)         20.48     19.21     24.33 
 H(Fragment=2)         19.35     19.28     23.33 
 O(Fragment=2)         17.18     20.01     23.22 
 H(Fragment=2)         17.78     19.87     23.96 
 H(Fragment=2)         17.47     20.83     22.83 
 O(Fragment=2)         17.29     18.02     17.04 
 H(Fragment=2)         18.11     17.53     17.08 
 H(Fragment=2)         17.13     18.31     17.94 
 O(Fragment=2)         19.57     22.54     23.84 
 H(Fragment=2)         20.47     22.29     23.6 
 H(Fragment=2)         19.13     22.66     23. 
 O(Fragment=2)         24.31     20.02     20.19 
 H(Fragment=2)         24.69     19.28     20.67 
 H(Fragment=2)         24.73     19.99     19.33 
 O(Fragment=2)         19.02     15.26     18.2 
 H(Fragment=2)         19.56     16.05     18.1 
 H(Fragment=2)         18.48     15.44     18.97 
 O(Fragment=2)         17.11     16.12     20.05 
 H(Fragment=2)         16.69     16.96     19.87 
 H(Fragment=2)         16.45     15.62     20.54 
 O(Fragment=2)         22.33     18.34     23.68 
 H(Fragment=2)         21.73     17.63     23.43 
 H(Fragment=2)         23.17     18.09     23.29 
 O(Fragment=2)         15.8      18.15     21.95 
 H(Fragment=2)         15.67     17.45     22.6 
 H(Fragment=2)         16.32     18.81     22.41 
 O(Fragment=2)         22.73     15.47     19.44 
 H(Fragment=2)         21.99     15.9      19.88 
 H(Fragment=2)         22.82     15.94     18.61 
 O(Fragment=2)         21.14     19.83     15.5 
 H(Fragment=2)         21.54     19.62     14.66 
 H(Fragment=2)         21.51     20.68     15.75 
 O(Fragment=2)         20.85     24.41     17.13 
 H(Fragment=2)         21.24     23.67     17.59 
 H(Fragment=2)         21.32     25.18     17.47 
 O(Fragment=2)         14.87     21.89     20.63 
 H(Fragment=2)         15.64     21.33     20.52 
 H(Fragment=2)         15.13     22.73     20.26 
 O(Fragment=2)         16.71     22.32     16.36 
 H(Fragment=2)         16.7      21.55     15.78 
 H(Fragment=2)         17.56     22.28     16.8 
 O(Fragment=2)         24.2      22.88     21.97 
 H(Fragment=2)         23.9      22.17     21.4 
 H(Fragment=2)         25.16     22.81     21.95 
 O(Fragment=2)         22.71     16.44     16.73 
 H(Fragment=2)         22.05     17.11     16.94 
 H(Fragment=2)         22.34     15.96     15.99 
 O(Fragment=2)         16.36     24.14     19.85 
 H(Fragment=2)         16.99     23.59     19.37 
 H(Fragment=2)         16.77     25.       19.88 
 O(Fragment=2)         21.25     16.01     22.96 
 H(Fragment=2)         21.49     15.97     22.03 
 H(Fragment=2)         20.32     15.78     22.97 
 O(Fragment=2)         18.74     20.44     14.77 
 H(Fragment=2)         19.6      20.45     15.19 
 H(Fragment=2)         18.6      19.52     14.54 
 O(Fragment=2)         14.35     17.88     19.46 
 H(Fragment=2)         15.12     18.45     19.42 
 H(Fragment=2)         14.14     17.83     20.39 
 O(Fragment=2)         18.53     15.44     22.65 
 H(Fragment=2)         17.77     15.45     22.07 
 H(Fragment=2)         18.17     15.49     23.53 
 O(Fragment=2)         15.85     19.85     15.42 
 H(Fragment=2)         16.23     19.15     15.95 
 H(Fragment=2)         14.91     19.8      15.6 
 O(Fragment=2)         18.88     21.26     26.13 
 H(Fragment=2)         19.06     21.73     25.31 
 H(Fragment=2)         19.44     20.49     26.09 
 O(Fragment=2)         23.31     25.21     21.19 
 H(Fragment=2)         23.38     24.34     21.57 
 H(Fragment=2)         24.12     25.33     20.7 
 O(Fragment=2)         19.79     23.45     14.61 
 H(Fragment=2)         19.01     22.95     14.83 
 H(Fragment=2)         20.23     23.59     15.45 
 O(Fragment=2)         23.39     22.95     24.69 
 H(Fragment=2)         23.72     22.08     24.9 
 H(Fragment=2)         23.61     23.07     23.76 
 O(Fragment=2)         15.23     16.37     16.17 
 H(Fragment=2)         14.45     16.48     16.7 
 H(Fragment=2)         15.86     16.98     16.55 
 O(Fragment=2)         19.14     17.41     26.31 
 H(Fragment=2)         18.47     16.86     25.9 
 H(Fragment=2)         19.05     18.25     25.87 
 O(Fragment=2)         24.77     16.91     22.63 
 H(Fragment=2)         25.46     17.19     22.04 
 H(Fragment=2)         24.89     15.97     22.72 
 O(Fragment=2)         14.25     20.96     23.74 
 H(Fragment=2)         14.18     21.14     22.8 
 H(Fragment=2)         15.19     20.93     23.91 
 O(Fragment=2)         25.75     20.61     17.58 
 H(Fragment=2)         26.51     21.2      17.57 
 H(Fragment=2)         25.53     20.5      16.65 
 O(Fragment=2)         25.5      17.26     16.84 
 H(Fragment=2)         24.57     17.06     16.86 
 H(Fragment=2)         25.9      16.49     16.44 
 O(Fragment=2)         23.75     24.41     16.98 
 H(Fragment=2)         23.67     23.66     16.39 
 H(Fragment=2)         24.5      24.2      17.53 
 O(Fragment=2)         16.35     24.91     16.28 
 H(Fragment=2)         16.46     23.97     16.33 
 H(Fragment=2)         16.91     25.19     15.55 
 O(Fragment=2)         20.31     12.91     17.71 
 H(Fragment=2)         21.08     12.78     18.27 
 H(Fragment=2)         19.91     13.72     18.02 
 O(Fragment=2)         24.68     14.44     22.03 
 H(Fragment=2)         24.12     14.97     21.47 
 H(Fragment=2)         24.32     13.56     21.96 
 O(Fragment=2)         22.41     18.36     13.71 
 H(Fragment=2)         22.05     17.57     14.1 
 H(Fragment=2)         22.56     18.12     12.79 
 O(Fragment=2)         13.78     22.73     17.5 
 H(Fragment=2)         14.56     22.58     16.97 
 H(Fragment=2)         14.02     23.43     18.1 
 O(Fragment=2)         18.48     17.89     13.77 
 H(Fragment=2)         18.9      17.03     13.82 
 H(Fragment=2)         17.78     17.78     13.14 
 O(Fragment=2)         17.21     13.41     17.06 
 H(Fragment=2)         17.44     12.49     17.17 
 H(Fragment=2)         17.91     13.89     17.5 
 O(Fragment=2)         26.58     18.55     21.63 
 H(Fragment=2)         26.45     19.1      22.4 
 H(Fragment=2)         27.49     18.69     21.37 
 O(Fragment=2)         12.24     21.47     20.61 
 H(Fragment=2)         13.19     21.43     20.6 
 H(Fragment=2)         12.03     22.36     20.33 
 O(Fragment=2)         16.58     22.3      26.03 
 H(Fragment=2)         17.36     21.78     26.23 
 H(Fragment=2)         16.92     23.12     25.67 
 O(Fragment=2)         25.21     19.44     15.04 
 H(Fragment=2)         24.42     19.14     14.6 
 H(Fragment=2)         25.39     18.76     15.69 
 O(Fragment=2)         22.78     12.71     19.18 
 H(Fragment=2)         23.58     12.44     18.73 
 H(Fragment=2)         22.9      13.65     19.33 
 O(Fragment=2)         22.43     14.44     25.11 
 H(Fragment=2)         21.62     13.94     25.08 
 H(Fragment=2)         22.38     15.03     24.36 
 O(Fragment=2)         21.37     27.48     22.06 
 H(Fragment=2)         20.61     27.77     21.55 
 H(Fragment=2)         21.61     26.64     21.68 
 O(Fragment=2)         22.36     26.67     17.81 
 H(Fragment=2)         22.96     27.11     18.4 
 H(Fragment=2)         22.86     25.93     17.46 
 O(Fragment=2)         14.       25.15     20.83 
 H(Fragment=2)         14.78     24.73     20.48 
 H(Fragment=2)         14.18     25.27     21.76 
 O(Fragment=2)         27.57     18.51     18.65 
 H(Fragment=2)         27.47     17.56     18.69 
 H(Fragment=2)         26.75     18.82     18.28 
 O(Fragment=2)         22.09     17.01     26.87 
 H(Fragment=2)         21.31     17.43     26.49 
 H(Fragment=2)         22.14     16.16     26.45 
 O(Fragment=2)         16.21     14.26     21.8 
 H(Fragment=2)         16.69     13.52     22.17 
 H(Fragment=2)         15.36     13.89     21.54 
 O(Fragment=2)         24.34     20.67     25.65 
 H(Fragment=2)         24.34     19.78     26. 
 H(Fragment=2)         24.49     21.23     26.42 
 O(Fragment=2)         16.91     26.21     22.45 
 H(Fragment=2)         16.62     25.55     23.09 
 H(Fragment=2)         16.27     26.92     22.53 
 O(Fragment=2)         17.12     20.24     12.32 
 H(Fragment=2)         17.66     20.21     13.11 
 H(Fragment=2)         16.33     20.72     12.59 
 O(Fragment=2)         14.99     16.24     23.74 
 H(Fragment=2)         14.68     15.39     23.44 
 H(Fragment=2)         14.34     16.53     24.38 
 O(Fragment=2)         17.29     26.94     17.83 
 H(Fragment=2)         16.98     26.13     17.4 
 H(Fragment=2)         16.51     27.49     17.87 
 O(Fragment=2)         17.32     15.2      25.05 
 H(Fragment=2)         17.04     14.84     25.89 
 H(Fragment=2)         16.51     15.49     24.64 
 O(Fragment=2)         21.25     24.58     26.32 
 H(Fragment=2)         21.9      24.21     25.72 
 H(Fragment=2)         20.77     25.22     25.79 
 O(Fragment=2)         26.51     20.32     23.82 
 H(Fragment=2)         25.84     20.44     24.5 
 H(Fragment=2)         27.05     21.11     23.88 
 O(Fragment=2)         21.09     12.66     22.09 
 H(Fragment=2)         20.86     13.21     22.84 
 H(Fragment=2)         20.39     12.01     22.04 
 O(Fragment=2)         21.74     15.69     14.2 
 H(Fragment=2)         20.83     15.4      14.09 
 H(Fragment=2)         22.27     14.97     13.86 
 O(Fragment=2)         15.08     24.44     23.75 
 H(Fragment=2)         15.06     25.05     24.49 
 H(Fragment=2)         14.9      23.58     24.14 
 O(Fragment=2)         24.61     17.99     26.35 
 H(Fragment=2)         24.83     17.94     25.42 
 H(Fragment=2)         23.71     17.67     26.4 
 O(Fragment=2)         17.82     24.93     25.67 
 H(Fragment=2)         18.5      25.34     25.13 
 H(Fragment=2)         18.12     25.06     26.57 
 O(Fragment=2)         25.99     24.91     20.37 
 H(Fragment=2)         26.03     24.72     19.43 
 H(Fragment=2)         26.35     24.13     20.79 
 O(Fragment=2)         16.89     14.56     14.83 
 H(Fragment=2)         16.84     14.       15.6 
 H(Fragment=2)         16.44     15.37     15.08 
 O(Fragment=2)         13.33     20.15     15.98 
 H(Fragment=2)         13.04     20.32     16.87 
 H(Fragment=2)         13.22     20.99     15.52 
 O(Fragment=2)         27.05     22.65     21.4 
 H(Fragment=2)         27.76     22.96     21.97 
 H(Fragment=2)         27.42     21.88     20.97 
 O(Fragment=2)         11.98     17.46     18.19 
 H(Fragment=2)         11.56     18.28     17.94 
 H(Fragment=2)         12.83     17.72     18.55 
 O(Fragment=2)         19.49     13.57     25.13 
 H(Fragment=2)         19.54     13.66     26.09 
 H(Fragment=2)         18.7      14.04     24.89 
 O(Fragment=2)         18.19     26.45     14.92 
 H(Fragment=2)         18.58     26.48     15.79 
 H(Fragment=2)         18.9      26.71     14.33 
 O(Fragment=2)         22.93     21.82     12.53 
 H(Fragment=2)         23.33     21.38     11.77 
 H(Fragment=2)         22.01     21.57     12.49 
 O(Fragment=2)         24.61     23.34     14.38 
 H(Fragment=2)         24.51     24.26     14.14 
 H(Fragment=2)         24.01     22.88     13.79 
 O(Fragment=2)         19.23     14.84     13.63 
 H(Fragment=2)         18.45     14.73     14.17 
 H(Fragment=2)         19.49     13.94     13.41 
 O(Fragment=2)         19.39     28.33     19.48 
 H(Fragment=2)         18.6      27.87     19.2 
 H(Fragment=2)         19.26     28.48     20.41 
 O(Fragment=2)         19.79     23.15     28.1 
 H(Fragment=2)         20.11     23.8      27.48 
 H(Fragment=2)         19.24     22.57     27.58 
 O(Fragment=2)         19.32     23.72     12. 
 H(Fragment=2)         19.84     23.03     11.59 
 H(Fragment=2)         19.65     23.76     12.9 
 O(Fragment=2)         26.53     24.25     17.9 
 H(Fragment=2)         27.13     23.53     17.69 
 H(Fragment=2)         26.97     25.03     17.56 
 O(Fragment=2)         24.55     25.45     24.99 
 H(Fragment=2)         25.45     25.38     24.66 
 H(Fragment=2)         24.28     24.54     25.15 
 O(Fragment=2)         13.23     14.45     19.43 
 H(Fragment=2)         12.83     14.49     18.57 
 H(Fragment=2)         13.32     15.36     19.7 
 O(Fragment=2)         28.47     20.73     20.31 
 H(Fragment=2)         28.21     19.99     19.76 
 H(Fragment=2)         29.18     21.16     19.83 
 O(Fragment=2)         14.94     19.09     26.5 
 H(Fragment=2)         14.17     19.58     26.8 
 H(Fragment=2)         15.67     19.48     26.97 
 O(Fragment=2)         18.62     28.43     22.3 
 H(Fragment=2)         18.3      28.83     23.11 
 H(Fragment=2)         18.01     27.71     22.14 
 O(Fragment=2)         19.7      26.84     24.68 
 H(Fragment=2)         19.36     27.3      23.91 
 H(Fragment=2)         20.24     27.49     25.12 
 O(Fragment=2)         23.25     28.08     20.01 
 H(Fragment=2)         24.       28.61     20.26 
 H(Fragment=2)         22.91     27.74     20.83 
 O(Fragment=2)         21.72     21.14     28.11 
 H(Fragment=2)         21.06     21.83     28.04 
 H(Fragment=2)         22.55     21.57     27.92 
 O(Fragment=2)         23.58     12.01     22.13 
 H(Fragment=2)         23.4      11.37     22.82 
 H(Fragment=2)         22.73     12.38     21.92 
 O(Fragment=2)         11.32     20.23     18.34 
 H(Fragment=2)         11.63     20.48     19.21 
 H(Fragment=2)         10.68     20.9      18.11 
 O(Fragment=2)         20.77     27.82     15.89 
 H(Fragment=2)         21.16     27.73     16.76 
 H(Fragment=2)         21.46     27.56     15.28 
 O(Fragment=2)         12.15     19.15     25.2 
 H(Fragment=2)         13.02     19.37     24.86 
 H(Fragment=2)         12.06     19.67     25.99 
 O(Fragment=2)         19.19     17.67     29.08 
 H(Fragment=2)         19.27     17.49     28.14 
 H(Fragment=2)         18.5      18.33     29.14 
 O(Fragment=2)         11.84     24.01     20.08 
 H(Fragment=2)         11.5      24.51     19.34 
 H(Fragment=2)         12.65     24.46     20.32 
 O(Fragment=2)         23.2      27.79     24.02 
 H(Fragment=2)         23.79     27.04     24.13 
 H(Fragment=2)         22.57     27.5      23.37 
 O(Fragment=2)         25.26     14.5      24.77 
 H(Fragment=2)         24.34     14.49     25.03 
 H(Fragment=2)         25.25     14.31     23.83 
 O(Fragment=2)         14.1      22.03     27.22 
 H(Fragment=2)         14.54     21.99     28.06 
 H(Fragment=2)         14.8      22.1      26.58 
 O(Fragment=2)         10.84     19.42     22.26 
 H(Fragment=2)         11.17     18.97     23.03 
 H(Fragment=2)         11.56     19.98     21.98 
 O(Fragment=2)         17.05     19.62     28.55 
 H(Fragment=2)         16.38     20.01     29.12 
 H(Fragment=2)         17.67     20.33     28.39 
 O(Fragment=2)         18.75     11.56     23.45 
 H(Fragment=2)         19.39     10.91     23.71 
 H(Fragment=2)         18.9      12.3      24.03 
 O(Fragment=2)         27.24     23.37     14.97 
 H(Fragment=2)         26.34     23.11     14.75 
 H(Fragment=2)         27.76     23.05     14.23 
 O(Fragment=2)         22.02     18.6      29.2 
 H(Fragment=2)         22.16     18.12     28.38 
 H(Fragment=2)         21.95     19.51     28.93 
 O(Fragment=2)         16.41     16.62     12.46 
 H(Fragment=2)         16.66     15.82     12.92 
 H(Fragment=2)         15.46     16.65     12.55 
 O(Fragment=2)         13.81     14.31     14.92 
 H(Fragment=2)         14.53     14.77     15.35 
 H(Fragment=2)         13.11     14.96     14.85 
 O(Fragment=2)         13.87     26.21     15.7 
 H(Fragment=2)         14.73     25.78     15.78 
 H(Fragment=2)         13.31     25.74     16.32 
 O(Fragment=2)         13.73     23.13     14.34 
 H(Fragment=2)         13.95     22.52     13.63 
 H(Fragment=2)         14.32     23.87     14.21 
 O(Fragment=2)         12.16     22.33     25.54 
 H(Fragment=2)         12.81     22.57     26.2 
 H(Fragment=2)         12.67     22.2      24.74 
 O(Fragment=2)         22.61     24.59     12.21 
 H(Fragment=2)         22.01     24.67     11.46 
 H(Fragment=2)         22.81     23.66     12.25 
 O(Fragment=2)         28.33     22.04     16.93 
 H(Fragment=2)         27.83     22.47     16.24 
 H(Fragment=2)         28.81     21.35     16.48 
 O(Fragment=2)         16.39     23.09     11.51 
 H(Fragment=2)         16.54     22.67     10.67 
 H(Fragment=2)         17.23     23.04     11.96 
 O(Fragment=2)         20.56     15.45     11.34 
 H(Fragment=2)         20.15     15.44     12.2 
 H(Fragment=2)         19.9      15.85     10.77 
 O(Fragment=2)         18.7      29.18     16.83 
 H(Fragment=2)         18.27     28.47     17.32 
 H(Fragment=2)         19.52     28.79     16.54 
 O(Fragment=2)         26.96     20.13     12.81 
 H(Fragment=2)         26.35     20.08     13.55 
 H(Fragment=2)         27.66     19.52     13.04 
 O(Fragment=2)         14.3      16.47     26.97 
 H(Fragment=2)         13.57     16.6      27.57 
 H(Fragment=2)         14.66     17.35     26.83 
 O(Fragment=2)         27.6      14.9      18.6 
 H(Fragment=2)         27.47     14.85     19.55 
 H(Fragment=2)         27.39     14.02     18.28 
 O(Fragment=2)         21.32     29.68     18.6 
 H(Fragment=2)         22.15     29.19     18.64 
 H(Fragment=2)         20.65     29.02     18.76 
 O(Fragment=2)         19.68     10.16     18.61 
 H(Fragment=2)         19.99     11.       18.3 
 H(Fragment=2)         19.22     9.78      17.87 
 O(Fragment=2)         26.32     14.66     16.05 
 H(Fragment=2)         25.68     14.03     15.72 
 H(Fragment=2)         26.8      14.17     16.72 
 O(Fragment=2)         22.5      26.86     13.6 
 H(Fragment=2)         23.4      27.       13.33 
 H(Fragment=2)         22.31     25.95     13.35 
 O(Fragment=2)         20.33     10.78     15.71 
 H(Fragment=2)         20.8      11.01     14.92 
 H(Fragment=2)         20.36     11.57     16.25 
 O(Fragment=2)         15.78     25.05     13.46 
 H(Fragment=2)         15.96     24.32     12.86 
 H(Fragment=2)         16.52     25.64     13.35 
 O(Fragment=2)         21.77     9.97      20.44 
 H(Fragment=2)         20.96     9.74      19.99 
 H(Fragment=2)         21.91     10.89     20.24 
 
 NAtoms=    385 NQM=      385 NQMF=       0 NMMI=      0 NMMIF=      0
                NMic=       0 NMicF=      0.
                    Isotopes and Nuclear Properties:
 (Nuclear quadrupole moments (NQMom) in fm**2, nuclear magnetic moments (NMagM)
  in nuclear magnetons)

  Atom         1           2           3           4           5           6           7           8           9          10
 IAtWgt=          79          16           1           1          16           1           1          16           1           1
 AtmWgt=  78.9183361  15.9949146   1.0078250   1.0078250  15.9949146   1.0078250   1.0078250  15.9949146   1.0078250   1.0078250
 NucSpn=           3           0           1           1           0           1           1           0           1           1
 AtZEff=   0.0000000   0.0000000   0.0000000   0.0000000   0.0000000   0.0000000   0.0000000   0.0000000   0.0000000   0.0000000
 NQMom=   31.3000000   0.0000000   0.0000000   0.0000000   0.0000000   0.0000000   0.0000000   0.0000000   0.0000000   0.0000000
 NMagM=    2.1063990   0.0000000   2.7928460   2.7928460   0.0000000   2.7928460   2.7928460   0.0000000   2.7928460   2.7928460
 AtZNuc=  35.0000000   8.0000000   1.0000000   1.0000000   8.0000000   1.0000000   1.0000000   8.0000000   1.0000000   1.0000000

  Atom        11          12          13          14          15          16          17          18          19          20
 IAtWgt=          16           1           1          16           1           1          16           1           1          16
 AtmWgt=  15.9949146   1.0078250   1.0078250  15.9949146   1.0078250   1.0078250  15.9949146   1.0078250   1.0078250  15.9949146
 NucSpn=           0           1           1           0           1           1           0           1           1           0
 AtZEff=   0.0000000   0.0000000   0.0000000   0.0000000   0.0000000   0.0000000   0.0000000   0.0000000   0.0000000   0.0000000
 NQMom=    0.0000000   0.0000000   0.0000000   0.0000000   0.0000000   0.0000000   0.0000000   0.0000000   0.0000000   0.0000000
 NMagM=    0.0000000   2.7928460   2.7928460   0.0000000   2.7928460   2.7928460   0.0000000   2.7928460   2.7928460   0.0000000
 AtZNuc=   8.0000000   1.0000000   1.0000000   8.0000000   1.0000000   1.0000000   8.0000000   1.0000000   1.0000000   8.0000000

  Atom        21          22          23          24          25          26          27          28          29          30
 IAtWgt=           1           1          16           1           1          16           1           1          16           1
 AtmWgt=   1.0078250   1.0078250  15.9949146   1.0078250   1.0078250  15.9949146   1.0078250   1.0078250  15.9949146   1.0078250
 NucSpn=           1           1           0           1           1           0           1           1           0           1
 AtZEff=   0.0000000   0.0000000   0.0000000   0.0000000   0.0000000   0.0000000   0.0000000   0.0000000   0.0000000   0.0000000
 NQMom=    0.0000000   0.0000000   0.0000000   0.0000000   0.0000000   0.0000000   0.0000000   0.0000000   0.0000000   0.0000000
 NMagM=    2.7928460   2.7928460   0.0000000   2.7928460   2.7928460   0.0000000   2.7928460   2.7928460   0.0000000   2.7928460
 AtZNuc=   1.0000000   1.0000000   8.0000000   1.0000000   1.0000000   8.0000000   1.0000000   1.0000000   8.0000000   1.0000000

  Atom        31          32          33          34          35          36          37          38          39          40
 IAtWgt=           1          16           1           1          16           1           1          16           1           1
 AtmWgt=   1.0078250  15.9949146   1.0078250   1.0078250  15.9949146   1.0078250   1.0078250  15.9949146   1.0078250   1.0078250
 NucSpn=           1           0           1           1           0           1           1           0           1           1
 AtZEff=   0.0000000   0.0000000   0.0000000   0.0000000   0.0000000   0.0000000   0.0000000   0.0000000   0.0000000   0.0000000
 NQMom=    0.0000000   0.0000000   0.0000000   0.0000000   0.0000000   0.0000000   0.0000000   0.0000000   0.0000000   0.0000000
 NMagM=    2.7928460   0.0000000   2.7928460   2.7928460   0.0000000   2.7928460   2.7928460   0.0000000   2.7928460   2.7928460
 AtZNuc=   1.0000000   8.0000000   1.0000000   1.0000000   8.0000000   1.0000000   1.0000000   8.0000000   1.0000000   1.0000000

  Atom        41          42          43          44          45          46          47          48          49          50
 IAtWgt=          16           1           1          16           1           1          16           1           1          16
 AtmWgt=  15.9949146   1.0078250   1.0078250  15.9949146   1.0078250   1.0078250  15.9949146   1.0078250   1.0078250  15.9949146
 NucSpn=           0           1           1           0           1           1           0           1           1           0
 AtZEff=   0.0000000   0.0000000   0.0000000   0.0000000   0.0000000   0.0000000   0.0000000   0.0000000   0.0000000   0.0000000
 NQMom=    0.0000000   0.0000000   0.0000000   0.0000000   0.0000000   0.0000000   0.0000000   0.0000000   0.0000000   0.0000000
 NMagM=    0.0000000   2.7928460   2.7928460   0.0000000   2.7928460   2.7928460   0.0000000   2.7928460   2.7928460   0.0000000
 AtZNuc=   8.0000000   1.0000000   1.0000000   8.0000000   1.0000000   1.0000000   8.0000000   1.0000000   1.0000000   8.0000000

  Atom        51          52          53          54          55          56          57          58          59          60
 IAtWgt=           1           1          16           1           1          16           1           1          16           1
 AtmWgt=   1.0078250   1.0078250  15.9949146   1.0078250   1.0078250  15.9949146   1.0078250   1.0078250  15.9949146   1.0078250
 NucSpn=           1           1           0           1           1           0           1           1           0           1
 AtZEff=   0.0000000   0.0000000   0.0000000   0.0000000   0.0000000   0.0000000   0.0000000   0.0000000   0.0000000   0.0000000
 NQMom=    0.0000000   0.0000000   0.0000000   0.0000000   0.0000000   0.0000000   0.0000000   0.0000000   0.0000000   0.0000000
 NMagM=    2.7928460   2.7928460   0.0000000   2.7928460   2.7928460   0.0000000   2.7928460   2.7928460   0.0000000   2.7928460
 AtZNuc=   1.0000000   1.0000000   8.0000000   1.0000000   1.0000000   8.0000000   1.0000000   1.0000000   8.0000000   1.0000000

  Atom        61          62          63          64          65          66          67          68          69          70
 IAtWgt=           1          16           1           1          16           1           1          16           1           1
 AtmWgt=   1.0078250  15.9949146   1.0078250   1.0078250  15.9949146   1.0078250   1.0078250  15.9949146   1.0078250   1.0078250
 NucSpn=           1           0           1           1           0           1           1           0           1           1
 AtZEff=   0.0000000   0.0000000   0.0000000   0.0000000   0.0000000   0.0000000   0.0000000   0.0000000   0.0000000   0.0000000
 NQMom=    0.0000000   0.0000000   0.0000000   0.0000000   0.0000000   0.0000000   0.0000000   0.0000000   0.0000000   0.0000000
 NMagM=    2.7928460   0.0000000   2.7928460   2.7928460   0.0000000   2.7928460   2.7928460   0.0000000   2.7928460   2.7928460
 AtZNuc=   1.0000000   8.0000000   1.0000000   1.0000000   8.0000000   1.0000000   1.0000000   8.0000000   1.0000000   1.0000000

  Atom        71          72          73          74          75          76          77          78          79          80
 IAtWgt=          16           1           1          16           1           1          16           1           1          16
 AtmWgt=  15.9949146   1.0078250   1.0078250  15.9949146   1.0078250   1.0078250  15.9949146   1.0078250   1.0078250  15.9949146
 NucSpn=           0           1           1           0           1           1           0           1           1           0
 AtZEff=   0.0000000   0.0000000   0.0000000   0.0000000   0.0000000   0.0000000   0.0000000   0.0000000   0.0000000   0.0000000
 NQMom=    0.0000000   0.0000000   0.0000000   0.0000000   0.0000000   0.0000000   0.0000000   0.0000000   0.0000000   0.0000000
 NMagM=    0.0000000   2.7928460   2.7928460   0.0000000   2.7928460   2.7928460   0.0000000   2.7928460   2.7928460   0.0000000
 AtZNuc=   8.0000000   1.0000000   1.0000000   8.0000000   1.0000000   1.0000000   8.0000000   1.0000000   1.0000000   8.0000000

  Atom        81          82          83          84          85          86          87          88          89          90
 IAtWgt=           1           1          16           1           1          16           1           1          16           1
 AtmWgt=   1.0078250   1.0078250  15.9949146   1.0078250   1.0078250  15.9949146   1.0078250   1.0078250  15.9949146   1.0078250
 NucSpn=           1           1           0           1           1           0           1           1           0           1
 AtZEff=   0.0000000   0.0000000   0.0000000   0.0000000   0.0000000   0.0000000   0.0000000   0.0000000   0.0000000   0.0000000
 NQMom=    0.0000000   0.0000000   0.0000000   0.0000000   0.0000000   0.0000000   0.0000000   0.0000000   0.0000000   0.0000000
 NMagM=    2.7928460   2.7928460   0.0000000   2.7928460   2.7928460   0.0000000   2.7928460   2.7928460   0.0000000   2.7928460
 AtZNuc=   1.0000000   1.0000000   8.0000000   1.0000000   1.0000000   8.0000000   1.0000000   1.0000000   8.0000000   1.0000000

  Atom        91          92          93          94          95          96          97          98          99         100
 IAtWgt=           1          16           1           1          16           1           1          16           1           1
 AtmWgt=   1.0078250  15.9949146   1.0078250   1.0078250  15.9949146   1.0078250   1.0078250  15.9949146   1.0078250   1.0078250
 NucSpn=           1           0           1           1           0           1           1           0           1           1
 AtZEff=   0.0000000   0.0000000   0.0000000   0.0000000   0.0000000   0.0000000   0.0000000   0.0000000   0.0000000   0.0000000
 NQMom=    0.0000000   0.0000000   0.0000000   0.0000000   0.0000000   0.0000000   0.0000000   0.0000000   0.0000000   0.0000000
 NMagM=    2.7928460   0.0000000   2.7928460   2.7928460   0.0000000   2.7928460   2.7928460   0.0000000   2.7928460   2.7928460
 AtZNuc=   1.0000000   8.0000000   1.0000000   1.0000000   8.0000000   1.0000000   1.0000000   8.0000000   1.0000000   1.0000000

  Atom       101         102         103         104         105         106         107         108         109         110
 IAtWgt=          16           1           1          16           1           1          16           1           1          16
 AtmWgt=  15.9949146   1.0078250   1.0078250  15.9949146   1.0078250   1.0078250  15.9949146   1.0078250   1.0078250  15.9949146
 NucSpn=           0           1           1           0           1           1           0           1           1           0
 AtZEff=   0.0000000   0.0000000   0.0000000   0.0000000   0.0000000   0.0000000   0.0000000   0.0000000   0.0000000   0.0000000
 NQMom=    0.0000000   0.0000000   0.0000000   0.0000000   0.0000000   0.0000000   0.0000000   0.0000000   0.0000000   0.0000000
 NMagM=    0.0000000   2.7928460   2.7928460   0.0000000   2.7928460   2.7928460   0.0000000   2.7928460   2.7928460   0.0000000
 AtZNuc=   8.0000000   1.0000000   1.0000000   8.0000000   1.0000000   1.0000000   8.0000000   1.0000000   1.0000000   8.0000000

  Atom       111         112         113         114         115         116         117         118         119         120
 IAtWgt=           1           1          16           1           1          16           1           1          16           1
 AtmWgt=   1.0078250   1.0078250  15.9949146   1.0078250   1.0078250  15.9949146   1.0078250   1.0078250  15.9949146   1.0078250
 NucSpn=           1           1           0           1           1           0           1           1           0           1
 AtZEff=   0.0000000   0.0000000   0.0000000   0.0000000   0.0000000   0.0000000   0.0000000   0.0000000   0.0000000   0.0000000
 NQMom=    0.0000000   0.0000000   0.0000000   0.0000000   0.0000000   0.0000000   0.0000000   0.0000000   0.0000000   0.0000000
 NMagM=    2.7928460   2.7928460   0.0000000   2.7928460   2.7928460   0.0000000   2.7928460   2.7928460   0.0000000   2.7928460
 AtZNuc=   1.0000000   1.0000000   8.0000000   1.0000000   1.0000000   8.0000000   1.0000000   1.0000000   8.0000000   1.0000000

  Atom       121         122         123         124         125         126         127         128         129         130
 IAtWgt=           1          16           1           1          16           1           1          16           1           1
 AtmWgt=   1.0078250  15.9949146   1.0078250   1.0078250  15.9949146   1.0078250   1.0078250  15.9949146   1.0078250   1.0078250
 NucSpn=           1           0           1           1           0           1           1           0           1           1
 AtZEff=   0.0000000   0.0000000   0.0000000   0.0000000   0.0000000   0.0000000   0.0000000   0.0000000   0.0000000   0.0000000
 NQMom=    0.0000000   0.0000000   0.0000000   0.0000000   0.0000000   0.0000000   0.0000000   0.0000000   0.0000000   0.0000000
 NMagM=    2.7928460   0.0000000   2.7928460   2.7928460   0.0000000   2.7928460   2.7928460   0.0000000   2.7928460   2.7928460
 AtZNuc=   1.0000000   8.0000000   1.0000000   1.0000000   8.0000000   1.0000000   1.0000000   8.0000000   1.0000000   1.0000000

  Atom       131         132         133         134         135         136         137         138         139         140
 IAtWgt=          16           1           1          16           1           1          16           1           1          16
 AtmWgt=  15.9949146   1.0078250   1.0078250  15.9949146   1.0078250   1.0078250  15.9949146   1.0078250   1.0078250  15.9949146
 NucSpn=           0           1           1           0           1           1           0           1           1           0
 AtZEff=   0.0000000   0.0000000   0.0000000   0.0000000   0.0000000   0.0000000   0.0000000   0.0000000   0.0000000   0.0000000
 NQMom=    0.0000000   0.0000000   0.0000000   0.0000000   0.0000000   0.0000000   0.0000000   0.0000000   0.0000000   0.0000000
 NMagM=    0.0000000   2.7928460   2.7928460   0.0000000   2.7928460   2.7928460   0.0000000   2.7928460   2.7928460   0.0000000
 AtZNuc=   8.0000000   1.0000000   1.0000000   8.0000000   1.0000000   1.0000000   8.0000000   1.0000000   1.0000000   8.0000000

  Atom       141         142         143         144         145         146         147         148         149         150
 IAtWgt=           1           1          16           1           1          16           1           1          16           1
 AtmWgt=   1.0078250   1.0078250  15.9949146   1.0078250   1.0078250  15.9949146   1.0078250   1.0078250  15.9949146   1.0078250
 NucSpn=           1           1           0           1           1           0           1           1           0           1
 AtZEff=   0.0000000   0.0000000   0.0000000   0.0000000   0.0000000   0.0000000   0.0000000   0.0000000   0.0000000   0.0000000
 NQMom=    0.0000000   0.0000000   0.0000000   0.0000000   0.0000000   0.0000000   0.0000000   0.0000000   0.0000000   0.0000000
 NMagM=    2.7928460   2.7928460   0.0000000   2.7928460   2.7928460   0.0000000   2.7928460   2.7928460   0.0000000   2.7928460
 AtZNuc=   1.0000000   1.0000000   8.0000000   1.0000000   1.0000000   8.0000000   1.0000000   1.0000000   8.0000000   1.0000000

  Atom       151         152         153         154         155         156         157         158         159         160
 IAtWgt=           1          16           1           1          16           1           1          16           1           1
 AtmWgt=   1.0078250  15.9949146   1.0078250   1.0078250  15.9949146   1.0078250   1.0078250  15.9949146   1.0078250   1.0078250
 NucSpn=           1           0           1           1           0           1           1           0           1           1
 AtZEff=   0.0000000   0.0000000   0.0000000   0.0000000   0.0000000   0.0000000   0.0000000   0.0000000   0.0000000   0.0000000
 NQMom=    0.0000000   0.0000000   0.0000000   0.0000000   0.0000000   0.0000000   0.0000000   0.0000000   0.0000000   0.0000000
 NMagM=    2.7928460   0.0000000   2.7928460   2.7928460   0.0000000   2.7928460   2.7928460   0.0000000   2.7928460   2.7928460
 AtZNuc=   1.0000000   8.0000000   1.0000000   1.0000000   8.0000000   1.0000000   1.0000000   8.0000000   1.0000000   1.0000000

  Atom       161         162         163         164         165         166         167         168         169         170
 IAtWgt=          16           1           1          16           1           1          16           1           1          16
 AtmWgt=  15.9949146   1.0078250   1.0078250  15.9949146   1.0078250   1.0078250  15.9949146   1.0078250   1.0078250  15.9949146
 NucSpn=           0           1           1           0           1           1           0           1           1           0
 AtZEff=   0.0000000   0.0000000   0.0000000   0.0000000   0.0000000   0.0000000   0.0000000   0.0000000   0.0000000   0.0000000
 NQMom=    0.0000000   0.0000000   0.0000000   0.0000000   0.0000000   0.0000000   0.0000000   0.0000000   0.0000000   0.0000000
 NMagM=    0.0000000   2.7928460   2.7928460   0.0000000   2.7928460   2.7928460   0.0000000   2.7928460   2.7928460   0.0000000
 AtZNuc=   8.0000000   1.0000000   1.0000000   8.0000000   1.0000000   1.0000000   8.0000000   1.0000000   1.0000000   8.0000000

  Atom       171         172         173         174         175         176         177         178         179         180
 IAtWgt=           1           1          16           1           1          16           1           1          16           1
 AtmWgt=   1.0078250   1.0078250  15.9949146   1.0078250   1.0078250  15.9949146   1.0078250   1.0078250  15.9949146   1.0078250
 NucSpn=           1           1           0           1           1           0           1           1           0           1
 AtZEff=   0.0000000   0.0000000   0.0000000   0.0000000   0.0000000   0.0000000   0.0000000   0.0000000   0.0000000   0.0000000
 NQMom=    0.0000000   0.0000000   0.0000000   0.0000000   0.0000000   0.0000000   0.0000000   0.0000000   0.0000000   0.0000000
 NMagM=    2.7928460   2.7928460   0.0000000   2.7928460   2.7928460   0.0000000   2.7928460   2.7928460   0.0000000   2.7928460
 AtZNuc=   1.0000000   1.0000000   8.0000000   1.0000000   1.0000000   8.0000000   1.0000000   1.0000000   8.0000000   1.0000000

  Atom       181         182         183         184         185         186         187         188         189         190
 IAtWgt=           1          16           1           1          16           1           1          16           1           1
 AtmWgt=   1.0078250  15.9949146   1.0078250   1.0078250  15.9949146   1.0078250   1.0078250  15.9949146   1.0078250   1.0078250
 NucSpn=           1           0           1           1           0           1           1           0           1           1
 AtZEff=   0.0000000   0.0000000   0.0000000   0.0000000   0.0000000   0.0000000   0.0000000   0.0000000   0.0000000   0.0000000
 NQMom=    0.0000000   0.0000000   0.0000000   0.0000000   0.0000000   0.0000000   0.0000000   0.0000000   0.0000000   0.0000000
 NMagM=    2.7928460   0.0000000   2.7928460   2.7928460   0.0000000   2.7928460   2.7928460   0.0000000   2.7928460   2.7928460
 AtZNuc=   1.0000000   8.0000000   1.0000000   1.0000000   8.0000000   1.0000000   1.0000000   8.0000000   1.0000000   1.0000000

  Atom       191         192         193         194         195         196         197         198         199         200
 IAtWgt=          16           1           1          16           1           1          16           1           1          16
 AtmWgt=  15.9949146   1.0078250   1.0078250  15.9949146   1.0078250   1.0078250  15.9949146   1.0078250   1.0078250  15.9949146
 NucSpn=           0           1           1           0           1           1           0           1           1           0
 AtZEff=   0.0000000   0.0000000   0.0000000   0.0000000   0.0000000   0.0000000   0.0000000   0.0000000   0.0000000   0.0000000
 NQMom=    0.0000000   0.0000000   0.0000000   0.0000000   0.0000000   0.0000000   0.0000000   0.0000000   0.0000000   0.0000000
 NMagM=    0.0000000   2.7928460   2.7928460   0.0000000   2.7928460   2.7928460   0.0000000   2.7928460   2.7928460   0.0000000
 AtZNuc=   8.0000000   1.0000000   1.0000000   8.0000000   1.0000000   1.0000000   8.0000000   1.0000000   1.0000000   8.0000000

  Atom       201         202         203         204         205         206         207         208         209         210
 IAtWgt=           1           1          16           1           1          16           1           1          16           1
 AtmWgt=   1.0078250   1.0078250  15.9949146   1.0078250   1.0078250  15.9949146   1.0078250   1.0078250  15.9949146   1.0078250
 NucSpn=           1           1           0           1           1           0           1           1           0           1
 AtZEff=   0.0000000   0.0000000   0.0000000   0.0000000   0.0000000   0.0000000   0.0000000   0.0000000   0.0000000   0.0000000
 NQMom=    0.0000000   0.0000000   0.0000000   0.0000000   0.0000000   0.0000000   0.0000000   0.0000000   0.0000000   0.0000000
 NMagM=    2.7928460   2.7928460   0.0000000   2.7928460   2.7928460   0.0000000   2.7928460   2.7928460   0.0000000   2.7928460
 AtZNuc=   1.0000000   1.0000000   8.0000000   1.0000000   1.0000000   8.0000000   1.0000000   1.0000000   8.0000000   1.0000000

  Atom       211         212         213         214         215         216         217         218         219         220
 IAtWgt=           1          16           1           1          16           1           1          16           1           1
 AtmWgt=   1.0078250  15.9949146   1.0078250   1.0078250  15.9949146   1.0078250   1.0078250  15.9949146   1.0078250   1.0078250
 NucSpn=           1           0           1           1           0           1           1           0           1           1
 AtZEff=   0.0000000   0.0000000   0.0000000   0.0000000   0.0000000   0.0000000   0.0000000   0.0000000   0.0000000   0.0000000
 NQMom=    0.0000000   0.0000000   0.0000000   0.0000000   0.0000000   0.0000000   0.0000000   0.0000000   0.0000000   0.0000000
 NMagM=    2.7928460   0.0000000   2.7928460   2.7928460   0.0000000   2.7928460   2.7928460   0.0000000   2.7928460   2.7928460
 AtZNuc=   1.0000000   8.0000000   1.0000000   1.0000000   8.0000000   1.0000000   1.0000000   8.0000000   1.0000000   1.0000000

  Atom       221         222         223         224         225         226         227         228         229         230
 IAtWgt=          16           1           1          16           1           1          16           1           1          16
 AtmWgt=  15.9949146   1.0078250   1.0078250  15.9949146   1.0078250   1.0078250  15.9949146   1.0078250   1.0078250  15.9949146
 NucSpn=           0           1           1           0           1           1           0           1           1           0
 AtZEff=   0.0000000   0.0000000   0.0000000   0.0000000   0.0000000   0.0000000   0.0000000   0.0000000   0.0000000   0.0000000
 NQMom=    0.0000000   0.0000000   0.0000000   0.0000000   0.0000000   0.0000000   0.0000000   0.0000000   0.0000000   0.0000000
 NMagM=    0.0000000   2.7928460   2.7928460   0.0000000   2.7928460   2.7928460   0.0000000   2.7928460   2.7928460   0.0000000
 AtZNuc=   8.0000000   1.0000000   1.0000000   8.0000000   1.0000000   1.0000000   8.0000000   1.0000000   1.0000000   8.0000000

  Atom       231         232         233         234         235         236         237         238         239         240
 IAtWgt=           1           1          16           1           1          16           1           1          16           1
 AtmWgt=   1.0078250   1.0078250  15.9949146   1.0078250   1.0078250  15.9949146   1.0078250   1.0078250  15.9949146   1.0078250
 NucSpn=           1           1           0           1           1           0           1           1           0           1
 AtZEff=   0.0000000   0.0000000   0.0000000   0.0000000   0.0000000   0.0000000   0.0000000   0.0000000   0.0000000   0.0000000
 NQMom=    0.0000000   0.0000000   0.0000000   0.0000000   0.0000000   0.0000000   0.0000000   0.0000000   0.0000000   0.0000000
 NMagM=    2.7928460   2.7928460   0.0000000   2.7928460   2.7928460   0.0000000   2.7928460   2.7928460   0.0000000   2.7928460
 AtZNuc=   1.0000000   1.0000000   8.0000000   1.0000000   1.0000000   8.0000000   1.0000000   1.0000000   8.0000000   1.0000000

  Atom       241         242         243         244         245         246         247         248         249         250
 IAtWgt=           1          16           1           1          16           1           1          16           1           1
 AtmWgt=   1.0078250  15.9949146   1.0078250   1.0078250  15.9949146   1.0078250   1.0078250  15.9949146   1.0078250   1.0078250
 NucSpn=           1           0           1           1           0           1           1           0           1           1
 AtZEff=   0.0000000   0.0000000   0.0000000   0.0000000   0.0000000   0.0000000   0.0000000   0.0000000   0.0000000   0.0000000
 NQMom=    0.0000000   0.0000000   0.0000000   0.0000000   0.0000000   0.0000000   0.0000000   0.0000000   0.0000000   0.0000000
 NMagM=    2.7928460   0.0000000   2.7928460   2.7928460   0.0000000   2.7928460   2.7928460   0.0000000   2.7928460   2.7928460
 AtZNuc=   1.0000000   8.0000000   1.0000000   1.0000000   8.0000000   1.0000000   1.0000000   8.0000000   1.0000000   1.0000000

  Atom       251         252         253         254         255         256         257         258         259         260
 IAtWgt=          16           1           1          16           1           1          16           1           1          16
 AtmWgt=  15.9949146   1.0078250   1.0078250  15.9949146   1.0078250   1.0078250  15.9949146   1.0078250   1.0078250  15.9949146
 NucSpn=           0           1           1           0           1           1           0           1           1           0
 AtZEff=   0.0000000   0.0000000   0.0000000   0.0000000   0.0000000   0.0000000   0.0000000   0.0000000   0.0000000   0.0000000
 NQMom=    0.0000000   0.0000000   0.0000000   0.0000000   0.0000000   0.0000000   0.0000000   0.0000000   0.0000000   0.0000000
 NMagM=    0.0000000   2.7928460   2.7928460   0.0000000   2.7928460   2.7928460   0.0000000   2.7928460   2.7928460   0.0000000
 AtZNuc=   8.0000000   1.0000000   1.0000000   8.0000000   1.0000000   1.0000000   8.0000000   1.0000000   1.0000000   8.0000000

  Atom       261         262         263         264         265         266         267         268         269         270
 IAtWgt=           1           1          16           1           1          16           1           1          16           1
 AtmWgt=   1.0078250   1.0078250  15.9949146   1.0078250   1.0078250  15.9949146   1.0078250   1.0078250  15.9949146   1.0078250
 NucSpn=           1           1           0           1           1           0           1           1           0           1
 AtZEff=   0.0000000   0.0000000   0.0000000   0.0000000   0.0000000   0.0000000   0.0000000   0.0000000   0.0000000   0.0000000
 NQMom=    0.0000000   0.0000000   0.0000000   0.0000000   0.0000000   0.0000000   0.0000000   0.0000000   0.0000000   0.0000000
 NMagM=    2.7928460   2.7928460   0.0000000   2.7928460   2.7928460   0.0000000   2.7928460   2.7928460   0.0000000   2.7928460
 AtZNuc=   1.0000000   1.0000000   8.0000000   1.0000000   1.0000000   8.0000000   1.0000000   1.0000000   8.0000000   1.0000000

  Atom       271         272         273         274         275         276         277         278         279         280
 IAtWgt=           1          16           1           1          16           1           1          16           1           1
 AtmWgt=   1.0078250  15.9949146   1.0078250   1.0078250  15.9949146   1.0078250   1.0078250  15.9949146   1.0078250   1.0078250
 NucSpn=           1           0           1           1           0           1           1           0           1           1
 AtZEff=   0.0000000   0.0000000   0.0000000   0.0000000   0.0000000   0.0000000   0.0000000   0.0000000   0.0000000   0.0000000
 NQMom=    0.0000000   0.0000000   0.0000000   0.0000000   0.0000000   0.0000000   0.0000000   0.0000000   0.0000000   0.0000000
 NMagM=    2.7928460   0.0000000   2.7928460   2.7928460   0.0000000   2.7928460   2.7928460   0.0000000   2.7928460   2.7928460
 AtZNuc=   1.0000000   8.0000000   1.0000000   1.0000000   8.0000000   1.0000000   1.0000000   8.0000000   1.0000000   1.0000000

  Atom       281         282         283         284         285         286         287         288         289         290
 IAtWgt=          16           1           1          16           1           1          16           1           1          16
 AtmWgt=  15.9949146   1.0078250   1.0078250  15.9949146   1.0078250   1.0078250  15.9949146   1.0078250   1.0078250  15.9949146
 NucSpn=           0           1           1           0           1           1           0           1           1           0
 AtZEff=   0.0000000   0.0000000   0.0000000   0.0000000   0.0000000   0.0000000   0.0000000   0.0000000   0.0000000   0.0000000
 NQMom=    0.0000000   0.0000000   0.0000000   0.0000000   0.0000000   0.0000000   0.0000000   0.0000000   0.0000000   0.0000000
 NMagM=    0.0000000   2.7928460   2.7928460   0.0000000   2.7928460   2.7928460   0.0000000   2.7928460   2.7928460   0.0000000
 AtZNuc=   8.0000000   1.0000000   1.0000000   8.0000000   1.0000000   1.0000000   8.0000000   1.0000000   1.0000000   8.0000000

  Atom       291         292         293         294         295         296         297         298         299         300
 IAtWgt=           1           1          16           1           1          16           1           1          16           1
 AtmWgt=   1.0078250   1.0078250  15.9949146   1.0078250   1.0078250  15.9949146   1.0078250   1.0078250  15.9949146   1.0078250
 NucSpn=           1           1           0           1           1           0           1           1           0           1
 AtZEff=   0.0000000   0.0000000   0.0000000   0.0000000   0.0000000   0.0000000   0.0000000   0.0000000   0.0000000   0.0000000
 NQMom=    0.0000000   0.0000000   0.0000000   0.0000000   0.0000000   0.0000000   0.0000000   0.0000000   0.0000000   0.0000000
 NMagM=    2.7928460   2.7928460   0.0000000   2.7928460   2.7928460   0.0000000   2.7928460   2.7928460   0.0000000   2.7928460
 AtZNuc=   1.0000000   1.0000000   8.0000000   1.0000000   1.0000000   8.0000000   1.0000000   1.0000000   8.0000000   1.0000000

  Atom       301         302         303         304         305         306         307         308         309         310
 IAtWgt=           1          16           1           1          16           1           1          16           1           1
 AtmWgt=   1.0078250  15.9949146   1.0078250   1.0078250  15.9949146   1.0078250   1.0078250  15.9949146   1.0078250   1.0078250
 NucSpn=           1           0           1           1           0           1           1           0           1           1
 AtZEff=   0.0000000   0.0000000   0.0000000   0.0000000   0.0000000   0.0000000   0.0000000   0.0000000   0.0000000   0.0000000
 NQMom=    0.0000000   0.0000000   0.0000000   0.0000000   0.0000000   0.0000000   0.0000000   0.0000000   0.0000000   0.0000000
 NMagM=    2.7928460   0.0000000   2.7928460   2.7928460   0.0000000   2.7928460   2.7928460   0.0000000   2.7928460   2.7928460
 AtZNuc=   1.0000000   8.0000000   1.0000000   1.0000000   8.0000000   1.0000000   1.0000000   8.0000000   1.0000000   1.0000000

  Atom       311         312         313         314         315         316         317         318         319         320
 IAtWgt=          16           1           1          16           1           1          16           1           1          16
 AtmWgt=  15.9949146   1.0078250   1.0078250  15.9949146   1.0078250   1.0078250  15.9949146   1.0078250   1.0078250  15.9949146
 NucSpn=           0           1           1           0           1           1           0           1           1           0
 AtZEff=   0.0000000   0.0000000   0.0000000   0.0000000   0.0000000   0.0000000   0.0000000   0.0000000   0.0000000   0.0000000
 NQMom=    0.0000000   0.0000000   0.0000000   0.0000000   0.0000000   0.0000000   0.0000000   0.0000000   0.0000000   0.0000000
 NMagM=    0.0000000   2.7928460   2.7928460   0.0000000   2.7928460   2.7928460   0.0000000   2.7928460   2.7928460   0.0000000
 AtZNuc=   8.0000000   1.0000000   1.0000000   8.0000000   1.0000000   1.0000000   8.0000000   1.0000000   1.0000000   8.0000000

  Atom       321         322         323         324         325         326         327         328         329         330
 IAtWgt=           1           1          16           1           1          16           1           1          16           1
 AtmWgt=   1.0078250   1.0078250  15.9949146   1.0078250   1.0078250  15.9949146   1.0078250   1.0078250  15.9949146   1.0078250
 NucSpn=           1           1           0           1           1           0           1           1           0           1
 AtZEff=   0.0000000   0.0000000   0.0000000   0.0000000   0.0000000   0.0000000   0.0000000   0.0000000   0.0000000   0.0000000
 NQMom=    0.0000000   0.0000000   0.0000000   0.0000000   0.0000000   0.0000000   0.0000000   0.0000000   0.0000000   0.0000000
 NMagM=    2.7928460   2.7928460   0.0000000   2.7928460   2.7928460   0.0000000   2.7928460   2.7928460   0.0000000   2.7928460
 AtZNuc=   1.0000000   1.0000000   8.0000000   1.0000000   1.0000000   8.0000000   1.0000000   1.0000000   8.0000000   1.0000000

  Atom       331         332         333         334         335         336         337         338         339         340
 IAtWgt=           1          16           1           1          16           1           1          16           1           1
 AtmWgt=   1.0078250  15.9949146   1.0078250   1.0078250  15.9949146   1.0078250   1.0078250  15.9949146   1.0078250   1.0078250
 NucSpn=           1           0           1           1           0           1           1           0           1           1
 AtZEff=   0.0000000   0.0000000   0.0000000   0.0000000   0.0000000   0.0000000   0.0000000   0.0000000   0.0000000   0.0000000
 NQMom=    0.0000000   0.0000000   0.0000000   0.0000000   0.0000000   0.0000000   0.0000000   0.0000000   0.0000000   0.0000000
 NMagM=    2.7928460   0.0000000   2.7928460   2.7928460   0.0000000   2.7928460   2.7928460   0.0000000   2.7928460   2.7928460
 AtZNuc=   1.0000000   8.0000000   1.0000000   1.0000000   8.0000000   1.0000000   1.0000000   8.0000000   1.0000000   1.0000000

  Atom       341         342         343         344         345         346         347         348         349         350
 IAtWgt=          16           1           1          16           1           1          16           1           1          16
 AtmWgt=  15.9949146   1.0078250   1.0078250  15.9949146   1.0078250   1.0078250  15.9949146   1.0078250   1.0078250  15.9949146
 NucSpn=           0           1           1           0           1           1           0           1           1           0
 AtZEff=   0.0000000   0.0000000   0.0000000   0.0000000   0.0000000   0.0000000   0.0000000   0.0000000   0.0000000   0.0000000
 NQMom=    0.0000000   0.0000000   0.0000000   0.0000000   0.0000000   0.0000000   0.0000000   0.0000000   0.0000000   0.0000000
 NMagM=    0.0000000   2.7928460   2.7928460   0.0000000   2.7928460   2.7928460   0.0000000   2.7928460   2.7928460   0.0000000
 AtZNuc=   8.0000000   1.0000000   1.0000000   8.0000000   1.0000000   1.0000000   8.0000000   1.0000000   1.0000000   8.0000000

  Atom       351         352         353         354         355         356         357         358         359         360
 IAtWgt=           1           1          16           1           1          16           1           1          16           1
 AtmWgt=   1.0078250   1.0078250  15.9949146   1.0078250   1.0078250  15.9949146   1.0078250   1.0078250  15.9949146   1.0078250
 NucSpn=           1           1           0           1           1           0           1           1           0           1
 AtZEff=   0.0000000   0.0000000   0.0000000   0.0000000   0.0000000   0.0000000   0.0000000   0.0000000   0.0000000   0.0000000
 NQMom=    0.0000000   0.0000000   0.0000000   0.0000000   0.0000000   0.0000000   0.0000000   0.0000000   0.0000000   0.0000000
 NMagM=    2.7928460   2.7928460   0.0000000   2.7928460   2.7928460   0.0000000   2.7928460   2.7928460   0.0000000   2.7928460
 AtZNuc=   1.0000000   1.0000000   8.0000000   1.0000000   1.0000000   8.0000000   1.0000000   1.0000000   8.0000000   1.0000000

  Atom       361         362         363         364         365         366         367         368         369         370
 IAtWgt=           1          16           1           1          16           1           1          16           1           1
 AtmWgt=   1.0078250  15.9949146   1.0078250   1.0078250  15.9949146   1.0078250   1.0078250  15.9949146   1.0078250   1.0078250
 NucSpn=           1           0           1           1           0           1           1           0           1           1
 AtZEff=   0.0000000   0.0000000   0.0000000   0.0000000   0.0000000   0.0000000   0.0000000   0.0000000   0.0000000   0.0000000
 NQMom=    0.0000000   0.0000000   0.0000000   0.0000000   0.0000000   0.0000000   0.0000000   0.0000000   0.0000000   0.0000000
 NMagM=    2.7928460   0.0000000   2.7928460   2.7928460   0.0000000   2.7928460   2.7928460   0.0000000   2.7928460   2.7928460
 AtZNuc=   1.0000000   8.0000000   1.0000000   1.0000000   8.0000000   1.0000000   1.0000000   8.0000000   1.0000000   1.0000000

  Atom       371         372         373         374         375         376         377         378         379         380
 IAtWgt=          16           1           1          16           1           1          16           1           1          16
 AtmWgt=  15.9949146   1.0078250   1.0078250  15.9949146   1.0078250   1.0078250  15.9949146   1.0078250   1.0078250  15.9949146
 NucSpn=           0           1           1           0           1           1           0           1           1           0
 AtZEff=   0.0000000   0.0000000   0.0000000   0.0000000   0.0000000   0.0000000   0.0000000   0.0000000   0.0000000   0.0000000
 NQMom=    0.0000000   0.0000000   0.0000000   0.0000000   0.0000000   0.0000000   0.0000000   0.0000000   0.0000000   0.0000000
 NMagM=    0.0000000   2.7928460   2.7928460   0.0000000   2.7928460   2.7928460   0.0000000   2.7928460   2.7928460   0.0000000
 AtZNuc=   8.0000000   1.0000000   1.0000000   8.0000000   1.0000000   1.0000000   8.0000000   1.0000000   1.0000000   8.0000000

  Atom       381         382         383         384         385
 IAtWgt=           1           1          16           1           1
 AtmWgt=   1.0078250   1.0078250  15.9949146   1.0078250   1.0078250
 NucSpn=           1           1           0           1           1
 AtZEff=   0.0000000   0.0000000   0.0000000   0.0000000   0.0000000
 NQMom=    0.0000000   0.0000000   0.0000000   0.0000000   0.0000000
 NMagM=    2.7928460   2.7928460   0.0000000   2.7928460   2.7928460
 AtZNuc=   1.0000000   1.0000000   8.0000000   1.0000000   1.0000000
 Leave Link  101 at Fri May  4 14:25:20 2018, MaxMem= 14763950080 cpu:        33.9
 (Enter /cm/shared/gaussian/g09.e01/intel64-sandybridge/g09/l103.exe)

 GradGradGradGradGradGradGradGradGradGradGradGradGradGradGradGradGradGrad
 Berny optimization.
 Initialization pass.
 Trust Radius=3.00D-01 FncErr=1.00D-07 GrdErr=1.00D-07
 Number of steps in this run=      2 maximum allowed number of steps=      2.
 GradGradGradGradGradGradGradGradGradGradGradGradGradGradGradGradGradGrad

 Leave Link  103 at Fri May  4 14:25:20 2018, MaxMem= 14763950080 cpu:         3.7
 (Enter /cm/shared/gaussian/g09.e01/intel64-sandybridge/g09/l202.exe)
 Symmetry turned off by external request.
 Stoichiometry    BrH256O128(1-)
 Framework group  C1[X(BrH256O128)]
 Deg. of freedom  1149
 Full point group                 C1      NOp   1
                          Input orientation:                          
 ---------------------------------------------------------------------
 Center     Atomic      Atomic             Coordinates (Angstroms)
 Number     Number       Type             X           Y           Z
 ---------------------------------------------------------------------
      1         35           0       20.000000   20.000000   20.000000
      2          8           0       21.320000   20.560000   22.690000
      3          1           0       21.920000   19.840000   22.880000
      4          1           0       20.830000   20.270000   21.930000
      5          8           0       18.110000   22.000000   21.570000
      6          1           0       18.830000   21.540000   21.140000
      7          1           0       18.160000   22.890000   21.220000
      8          8           0       20.540000   17.960000   17.580000
      9          1           0       20.530000   18.480000   18.380000
     10          1           0       20.560000   18.610000   16.870000
     11          8           0       16.920000   19.020000   19.730000
     12          1           0       17.790000   19.360000   19.960000
     13          1           0       16.540000   18.740000   20.560000
     14          8           0       20.330000   16.680000   20.540000
     15          1           0       20.450000   17.610000   20.340000
     16          1           0       19.390000   16.580000   20.630000
     17          8           0       18.650000   22.880000   18.550000
     18          1           0       19.270000   23.320000   17.970000
     19          1           0       19.090000   22.070000   18.800000
     20          8           0       21.890000   22.140000   18.210000
     21          1           0       21.790000   21.790000   19.090000
     22          1           0       22.770000   21.870000   17.940000
     23          8           0       19.530000   19.080000   24.240000
     24          1           0       20.480000   19.210000   24.330000
     25          1           0       19.350000   19.280000   23.330000
     26          8           0       17.180000   20.010000   23.220000
     27          1           0       17.780000   19.870000   23.960000
     28          1           0       17.470000   20.830000   22.830000
     29          8           0       17.290000   18.020000   17.040000
     30          1           0       18.110000   17.530000   17.080000
     31          1           0       17.130000   18.310000   17.940000
     32          8           0       19.570000   22.540000   23.840000
     33          1           0       20.470000   22.290000   23.600000
     34          1           0       19.130000   22.660000   23.000000
     35          8           0       24.310000   20.020000   20.190000
     36          1           0       24.690000   19.280000   20.670000
     37          1           0       24.730000   19.990000   19.330000
     38          8           0       19.020000   15.260000   18.200000
     39          1           0       19.560000   16.050000   18.100000
     40          1           0       18.480000   15.440000   18.970000
     41          8           0       17.110000   16.120000   20.050000
     42          1           0       16.690000   16.960000   19.870000
     43          1           0       16.450000   15.620000   20.540000
     44          8           0       22.330000   18.340000   23.680000
     45          1           0       21.730000   17.630000   23.430000
     46          1           0       23.170000   18.090000   23.290000
     47          8           0       15.800000   18.150000   21.950000
     48          1           0       15.670000   17.450000   22.600000
     49          1           0       16.320000   18.810000   22.410000
     50          8           0       22.730000   15.470000   19.440000
     51          1           0       21.990000   15.900000   19.880000
     52          1           0       22.820000   15.940000   18.610000
     53          8           0       21.140000   19.830000   15.500000
     54          1           0       21.540000   19.620000   14.660000
     55          1           0       21.510000   20.680000   15.750000
     56          8           0       20.850000   24.410000   17.130000
     57          1           0       21.240000   23.670000   17.590000
     58          1           0       21.320000   25.180000   17.470000
     59          8           0       14.870000   21.890000   20.630000
     60          1           0       15.640000   21.330000   20.520000
     61          1           0       15.130000   22.730000   20.260000
     62          8           0       16.710000   22.320000   16.360000
     63          1           0       16.700000   21.550000   15.780000
     64          1           0       17.560000   22.280000   16.800000
     65          8           0       24.200000   22.880000   21.970000
     66          1           0       23.900000   22.170000   21.400000
     67          1           0       25.160000   22.810000   21.950000
     68          8           0       22.710000   16.440000   16.730000
     69          1           0       22.050000   17.110000   16.940000
     70          1           0       22.340000   15.960000   15.990000
     71          8           0       16.360000   24.140000   19.850000
     72          1           0       16.990000   23.590000   19.370000
     73          1           0       16.770000   25.000000   19.880000
     74          8           0       21.250000   16.010000   22.960000
     75          1           0       21.490000   15.970000   22.030000
     76          1           0       20.320000   15.780000   22.970000
     77          8           0       18.740000   20.440000   14.770000
     78          1           0       19.600000   20.450000   15.190000
     79          1           0       18.600000   19.520000   14.540000
     80          8           0       14.350000   17.880000   19.460000
     81          1           0       15.120000   18.450000   19.420000
     82          1           0       14.140000   17.830000   20.390000
     83          8           0       18.530000   15.440000   22.650000
     84          1           0       17.770000   15.450000   22.070000
     85          1           0       18.170000   15.490000   23.530000
     86          8           0       15.850000   19.850000   15.420000
     87          1           0       16.230000   19.150000   15.950000
     88          1           0       14.910000   19.800000   15.600000
     89          8           0       18.880000   21.260000   26.130000
     90          1           0       19.060000   21.730000   25.310000
     91          1           0       19.440000   20.490000   26.090000
     92          8           0       23.310000   25.210000   21.190000
     93          1           0       23.380000   24.340000   21.570000
     94          1           0       24.120000   25.330000   20.700000
     95          8           0       19.790000   23.450000   14.610000
     96          1           0       19.010000   22.950000   14.830000
     97          1           0       20.230000   23.590000   15.450000
     98          8           0       23.390000   22.950000   24.690000
     99          1           0       23.720000   22.080000   24.900000
    100          1           0       23.610000   23.070000   23.760000
    101          8           0       15.230000   16.370000   16.170000
    102          1           0       14.450000   16.480000   16.700000
    103          1           0       15.860000   16.980000   16.550000
    104          8           0       19.140000   17.410000   26.310000
    105          1           0       18.470000   16.860000   25.900000
    106          1           0       19.050000   18.250000   25.870000
    107          8           0       24.770000   16.910000   22.630000
    108          1           0       25.460000   17.190000   22.040000
    109          1           0       24.890000   15.970000   22.720000
    110          8           0       14.250000   20.960000   23.740000
    111          1           0       14.180000   21.140000   22.800000
    112          1           0       15.190000   20.930000   23.910000
    113          8           0       25.750000   20.610000   17.580000
    114          1           0       26.510000   21.200000   17.570000
    115          1           0       25.530000   20.500000   16.650000
    116          8           0       25.500000   17.260000   16.840000
    117          1           0       24.570000   17.060000   16.860000
    118          1           0       25.900000   16.490000   16.440000
    119          8           0       23.750000   24.410000   16.980000
    120          1           0       23.670000   23.660000   16.390000
    121          1           0       24.500000   24.200000   17.530000
    122          8           0       16.350000   24.910000   16.280000
    123          1           0       16.460000   23.970000   16.330000
    124          1           0       16.910000   25.190000   15.550000
    125          8           0       20.310000   12.910000   17.710000
    126          1           0       21.080000   12.780000   18.270000
    127          1           0       19.910000   13.720000   18.020000
    128          8           0       24.680000   14.440000   22.030000
    129          1           0       24.120000   14.970000   21.470000
    130          1           0       24.320000   13.560000   21.960000
    131          8           0       22.410000   18.360000   13.710000
    132          1           0       22.050000   17.570000   14.100000
    133          1           0       22.560000   18.120000   12.790000
    134          8           0       13.780000   22.730000   17.500000
    135          1           0       14.560000   22.580000   16.970000
    136          1           0       14.020000   23.430000   18.100000
    137          8           0       18.480000   17.890000   13.770000
    138          1           0       18.900000   17.030000   13.820000
    139          1           0       17.780000   17.780000   13.140000
    140          8           0       17.210000   13.410000   17.060000
    141          1           0       17.440000   12.490000   17.170000
    142          1           0       17.910000   13.890000   17.500000
    143          8           0       26.580000   18.550000   21.630000
    144          1           0       26.450000   19.100000   22.400000
    145          1           0       27.490000   18.690000   21.370000
    146          8           0       12.240000   21.470000   20.610000
    147          1           0       13.190000   21.430000   20.600000
    148          1           0       12.030000   22.360000   20.330000
    149          8           0       16.580000   22.300000   26.030000
    150          1           0       17.360000   21.780000   26.230000
    151          1           0       16.920000   23.120000   25.670000
    152          8           0       25.210000   19.440000   15.040000
    153          1           0       24.420000   19.140000   14.600000
    154          1           0       25.390000   18.760000   15.690000
    155          8           0       22.780000   12.710000   19.180000
    156          1           0       23.580000   12.440000   18.730000
    157          1           0       22.900000   13.650000   19.330000
    158          8           0       22.430000   14.440000   25.110000
    159          1           0       21.620000   13.940000   25.080000
    160          1           0       22.380000   15.030000   24.360000
    161          8           0       21.370000   27.480000   22.060000
    162          1           0       20.610000   27.770000   21.550000
    163          1           0       21.610000   26.640000   21.680000
    164          8           0       22.360000   26.670000   17.810000
    165          1           0       22.960000   27.110000   18.400000
    166          1           0       22.860000   25.930000   17.460000
    167          8           0       14.000000   25.150000   20.830000
    168          1           0       14.780000   24.730000   20.480000
    169          1           0       14.180000   25.270000   21.760000
    170          8           0       27.570000   18.510000   18.650000
    171          1           0       27.470000   17.560000   18.690000
    172          1           0       26.750000   18.820000   18.280000
    173          8           0       22.090000   17.010000   26.870000
    174          1           0       21.310000   17.430000   26.490000
    175          1           0       22.140000   16.160000   26.450000
    176          8           0       16.210000   14.260000   21.800000
    177          1           0       16.690000   13.520000   22.170000
    178          1           0       15.360000   13.890000   21.540000
    179          8           0       24.340000   20.670000   25.650000
    180          1           0       24.340000   19.780000   26.000000
    181          1           0       24.490000   21.230000   26.420000
    182          8           0       16.910000   26.210000   22.450000
    183          1           0       16.620000   25.550000   23.090000
    184          1           0       16.270000   26.920000   22.530000
    185          8           0       17.120000   20.240000   12.320000
    186          1           0       17.660000   20.210000   13.110000
    187          1           0       16.330000   20.720000   12.590000
    188          8           0       14.990000   16.240000   23.740000
    189          1           0       14.680000   15.390000   23.440000
    190          1           0       14.340000   16.530000   24.380000
    191          8           0       17.290000   26.940000   17.830000
    192          1           0       16.980000   26.130000   17.400000
    193          1           0       16.510000   27.490000   17.870000
    194          8           0       17.320000   15.200000   25.050000
    195          1           0       17.040000   14.840000   25.890000
    196          1           0       16.510000   15.490000   24.640000
    197          8           0       21.250000   24.580000   26.320000
    198          1           0       21.900000   24.210000   25.720000
    199          1           0       20.770000   25.220000   25.790000
    200          8           0       26.510000   20.320000   23.820000
    201          1           0       25.840000   20.440000   24.500000
    202          1           0       27.050000   21.110000   23.880000
    203          8           0       21.090000   12.660000   22.090000
    204          1           0       20.860000   13.210000   22.840000
    205          1           0       20.390000   12.010000   22.040000
    206          8           0       21.740000   15.690000   14.200000
    207          1           0       20.830000   15.400000   14.090000
[...]
   Z335      27.09867   0.00562   0.00000   0.00524   0.00506  27.10374
   X336      26.36168   0.00318   0.00000   0.00455   0.00443  26.36611
   Y336      42.55663   0.00201   0.00000   0.00379   0.00258  42.55922
   Z336      25.75697  -0.00434   0.00000  -0.00645  -0.00663  25.75033
   X337      27.06088   0.00895   0.00000   0.00182   0.00132  27.06220
   Y337      45.10776   0.01586   0.00000   0.01140   0.01027  45.11804
   Z337      26.85301   0.00013   0.00000   0.00402   0.00391  26.85692
   X338      22.97907  -0.01845   0.00000  -0.01440  -0.01534  22.96373
   Y338      42.19758   0.00382   0.00000   0.01212   0.01010  42.20768
   Z338      48.26361  -0.00540   0.00000  -0.00734  -0.00765  48.25595
   X339      24.20739   0.00418   0.00000  -0.00175  -0.00279  24.20460
   Y339      42.65112  -0.00084   0.00000  -0.00335  -0.00523  42.64589
   Z339      49.51082   0.00783   0.00000   0.00532   0.00505  49.51588
   X340      23.94283   0.00489   0.00000   0.00316   0.00231  23.94514
   Y340      41.95192  -0.00642   0.00000  -0.00870  -0.01056  41.94136
   Z340      46.75182  -0.00641   0.00000  -0.00387  -0.00415  46.74767
   X341      42.72671  -0.00010   0.00000   0.00422   0.00369  42.73040
   Y341      46.46837   0.01453   0.00000   0.00490   0.00586  46.47423
   Z341      23.07356  -0.00350   0.00000  -0.00651  -0.00600  23.06756
   X342      41.59287  -0.00404   0.00000  -0.00628  -0.00677  41.58610
   Y342      46.61954   0.00261   0.00000   0.00397   0.00480  46.62435
   Z342      21.65626   0.00074   0.00000   0.00125   0.00172  21.65798
   X343      43.10465   0.00077   0.00000  -0.00227  -0.00256  43.10209
   Y343      44.71092  -0.01941   0.00000  -0.01554  -0.01453  44.69639
   Z343      23.14915   0.00015   0.00000  -0.00073  -0.00023  23.14891
   X344      53.53594   0.00418   0.00000  -0.00550  -0.00574  53.53020
   Y344      41.64956  -0.00757   0.00000  -0.01001  -0.00781  41.64176
   Z344      31.99306   0.03584   0.00000   0.02275   0.02359  32.01666
   X345      52.59108  -0.01070   0.00000   0.00004  -0.00026  52.59082
   Y345      42.46215   0.01527   0.00000   0.00983   0.01193  42.47408
   Z345      30.68915  -0.02897   0.00000  -0.02131  -0.02049  30.66866
   X346      54.44301   0.00457   0.00000   0.00277   0.00273  54.44574
   Y346      40.34565  -0.00919   0.00000  -0.00898  -0.00664  40.33901
   Z346      31.14269  -0.00246   0.00000   0.00335   0.00421  31.14690
   X347      30.97261  -0.01927   0.00000  -0.01047  -0.01058  30.96203
   Y347      43.63378   0.00595   0.00000   0.00170   0.00116  43.63494
   Z347      21.75075   0.01003   0.00000   0.01070   0.01072  21.76146
   X348      31.25607   0.00305   0.00000   0.00019   0.00024  31.25631
   Y348      42.84009  -0.00601   0.00000  -0.00279  -0.00326  42.83683
   Z348      20.16338  -0.00896   0.00000  -0.00261  -0.00260  20.16078
   X349      32.55998   0.02088   0.00000   0.01829   0.01817  32.57815
   Y349      43.53929  -0.00300   0.00000  -0.00265  -0.00300  43.53629
   Z349      22.60112   0.00177   0.00000  -0.00347  -0.00340  22.59772
   X350      38.85277   0.01813   0.00000   0.01225   0.01402  38.86679
   Y350      29.19627  -0.00120   0.00000   0.00077   0.00126  29.19753
   Z350      21.42949  -0.01259   0.00000  -0.00858  -0.00850  21.42099
   X351      38.07798  -0.01254   0.00000  -0.01265  -0.01094  38.06704
   Y351      29.17737   0.00342   0.00000   0.00445   0.00481  29.18218
   Z351      23.05466   0.00747   0.00000  -0.00129  -0.00125  23.05341
   X352      37.60555  -0.00506   0.00000  -0.00397  -0.00226  37.60329
   Y352      29.95216   0.00142   0.00000  -0.00043  -0.00009  29.95207
   Z352      20.35235  -0.00098   0.00000  -0.00065  -0.00061  20.35174
   X353      35.33788  -0.02180   0.00000  -0.01299  -0.01497  35.32291
   Y353      55.14221   0.01383   0.00000   0.01460   0.01445  55.15666
   Z353      31.80409   0.00731   0.00000   0.00415   0.00453  31.80862
   X354      34.52530   0.00284   0.00000   0.00327   0.00142  34.52672
   Y354      53.80050  -0.00013   0.00000  -0.00121  -0.00148  53.79903
   Z354      32.73006  -0.00741   0.00000  -0.01085  -0.01052  32.71953
   X355      36.88745   0.01155   0.00000   0.00299   0.00112  36.88858
   Y355      54.40522  -0.00220   0.00000   0.00630   0.00637  54.41159
   Z355      31.25607  -0.00991   0.00000  -0.01135  -0.01093  31.24514
   X356      50.94702   0.00118   0.00000  -0.00007   0.00045  50.94747
   Y356      38.04019   0.01290   0.00000   0.00931   0.01131  38.05150
   Z356      24.20739  -0.01234   0.00000  -0.00649  -0.00581  24.20158
   X357      49.79428  -0.00525   0.00000  -0.00216  -0.00168  49.79261
   Y357      37.94570  -0.00655   0.00000  -0.00990  -0.00807  37.93763
   Z357      25.60579   0.01218   0.00000   0.00886   0.00950  25.61529
   X358      52.26982   0.00313   0.00000  -0.00102  -0.00037  52.26946
   Y358      36.88745  -0.00586   0.00000  -0.00461  -0.00245  36.88501
   Z358      24.64203   0.00367   0.00000   0.00140   0.00212  24.64415
   X359      27.02308   0.00674   0.00000   0.00541   0.00581  27.02889
   Y359      31.12379  -0.02285   0.00000  -0.01317  -0.01470  31.10908
   Z359      50.96591  -0.01129   0.00000  -0.01055  -0.01090  50.95501
   X360      25.64358  -0.00804   0.00000  -0.00355  -0.00324  25.64035
   Y360      31.36945   0.00302   0.00000   0.00147  -0.00027  31.36918
   Z360      52.09975   0.00429   0.00000  -0.00139  -0.00178  52.09797
   X361      27.70339   0.00274   0.00000  -0.00046  -0.00027  27.70311
   Y361      32.78675   0.01771   0.00000   0.01279   0.01134  32.79809
   Z361      50.70135   0.00031   0.00000   0.00165   0.00136  50.70271
   X362      52.15644   0.00469   0.00000   0.00243   0.00381  52.16025
   Y362      28.15692   0.00896   0.00000   0.00438   0.00636  28.16328
   Z362      35.14891  -0.00618   0.00000  -0.00338  -0.00281  35.14610
   X363      51.91078  -0.00366   0.00000  -0.00533  -0.00401  51.90677
   Y363      28.06243  -0.00353   0.00000  -0.00422  -0.00231  28.06012
   Z363      36.94415   0.00603   0.00000   0.00290   0.00345  36.94760
   X364      51.75960   0.00161   0.00000   0.00305   0.00467  51.76427
   Y364      26.49396  -0.00639   0.00000  -0.00763  -0.00570  26.48826
   Z364      34.54419   0.01092   0.00000   0.01686   0.01738  34.56157
   X365      40.28896   0.02551   0.00000   0.02339   0.02116  40.31012
   Y365      56.08707   0.01783   0.00000   0.01447   0.01492  56.10199
   Z365      35.14891  -0.01227   0.00000  -0.01765  -0.01707  35.13184
   X366      41.85743  -0.00389   0.00000   0.00231   0.00019  41.85763
   Y366      55.16111   0.00072   0.00000  -0.00207  -0.00143  55.15968
   Z366      35.22450   0.00493   0.00000   0.00796   0.00858  35.23308
   X367      39.02284  -0.01136   0.00000  -0.00197  -0.00406  39.01879
   Y367      54.83985  -0.00562   0.00000   0.00796   0.00823  54.84808
   Z367      35.45126   0.00213   0.00000  -0.00090  -0.00039  35.45087
   X368      37.18981  -0.00424   0.00000  -0.01028  -0.00774  37.18207
   Y368      19.19962  -0.01518   0.00000  -0.00654  -0.00650  19.19312
   Z368      35.16780   0.02246   0.00000   0.01524   0.01509  35.18289
   X369      37.77563   0.00277   0.00000  -0.00431  -0.00195  37.77367
   Y369      20.78699   0.02184   0.00000   0.01402   0.01414  20.80113
   Z369      34.58199  -0.00891   0.00000  -0.00425  -0.00436  34.57763
   X370      36.32054  -0.00261   0.00000   0.00012   0.00280  36.32334
   Y370      18.48152  -0.00485   0.00000  -0.00459  -0.00464  18.47689
   Z370      33.76941  -0.01353   0.00000  -0.01056  -0.01076  33.75864
   X371      49.73759   0.00134   0.00000  -0.00269  -0.00106  49.73653
   Y371      27.70339   0.00534   0.00000   0.00100   0.00275  27.70613
   Z371      30.33010  -0.00562   0.00000  -0.01012  -0.00966  30.32045
   X372      48.52817  -0.00615   0.00000  -0.00792  -0.00611  48.52205
   Y372      26.51286  -0.00474   0.00000  -0.00552  -0.00393  26.50893
   Z372      29.70649  -0.00318   0.00000  -0.00376  -0.00336  29.70313
   X373      50.64466   0.00160   0.00000   0.00014   0.00184  50.64650
   Y373      26.77742   0.00382   0.00000   0.00672   0.00856  26.78598
   Z373      31.59622  -0.00067   0.00000  -0.00350  -0.00302  31.59320
   X374      42.51884  -0.01530   0.00000  -0.00788  -0.00906  42.50978
   Y374      50.75804   0.01024   0.00000   0.00618   0.00706  50.76511
   Z374      25.70028   0.01482   0.00000   0.01496   0.01553  25.71581
   X375      44.21959   0.01175   0.00000   0.00509   0.00389  44.22348
   Y375      51.02261   0.00072   0.00000   0.00053   0.00164  51.02425
   Z375      25.19005  -0.00496   0.00000  -0.00331  -0.00266  25.18739
   X376      42.15979   0.00221   0.00000   0.00389   0.00295  42.16274
   Y376      49.03839  -0.00661   0.00000  -0.00219  -0.00134  49.03705
   Z376      25.22784  -0.00433   0.00000  -0.00420  -0.00366  25.22418
   X377      38.41813  -0.01085   0.00000  -0.01224  -0.00965  38.40849
   Y377      20.37125  -0.01537   0.00000  -0.00678  -0.00649  20.36476
   Z377      29.68760   0.00660   0.00000   0.00444   0.00435  29.69194
   X378      39.30630   0.00833   0.00000   0.00306   0.00566  39.31196
   Y378      20.80588   0.00384   0.00000   0.00040   0.00083  20.80672
   Z378      28.19471  -0.01284   0.00000  -0.00682  -0.00687  28.18784
   X379      38.47482   0.00021   0.00000  -0.00237  -0.00001  38.47481
   Y379      21.86413   0.01541   0.00000   0.01191   0.01219  21.87633
   Z379      30.70805   0.00860   0.00000   0.00652   0.00646  30.71451
   X380      29.81988  -0.01148   0.00000  -0.00504  -0.00577  29.81411
   Y380      47.33764  -0.00803   0.00000  -0.00670  -0.00745  47.33019
   Z380      25.43571   0.00474   0.00000   0.00274   0.00277  25.43849
   X381      30.16003   0.00013   0.00000  -0.00079  -0.00130  30.15873
   Y381      45.95814  -0.00112   0.00000   0.00184   0.00115  45.95929
   Z381      24.30188  -0.01040   0.00000  -0.01446  -0.01443  24.28744
   X382      31.21828   0.00924   0.00000   0.00437   0.00351  31.22178
   Y382      48.45258   0.00903   0.00000   0.00670   0.00614  48.45872
   Z382      25.22784   0.00144   0.00000   0.00440   0.00451  25.23235
   X383      41.13934   0.01025   0.00000  -0.00056   0.00189  41.14123
   Y383      18.84057  -0.01182   0.00000  -0.00622  -0.00572  18.83485
   Z383      38.62600   0.01832   0.00000   0.01751   0.01750  38.64350
   X384      39.60866  -0.01198   0.00000  -0.00752  -0.00498  39.60368
   Y384      18.40593   0.00044   0.00000   0.00254   0.00285  18.40878
   Z384      37.77563  -0.01184   0.00000  -0.01134  -0.01142  37.76421
   X385      41.40390   0.00439   0.00000   0.00527   0.00751  41.41141
   Y385      20.57912   0.01391   0.00000   0.00651   0.00705  20.58617
   Z385      38.24806  -0.00538   0.00000  -0.00433  -0.00430  38.24376
         Item               Value     Threshold  Converged?
 Maximum Force            0.045012     0.000450     NO 
 RMS     Force            0.011308     0.000300     NO 
 Maximum Displacement     0.032944     0.001800     NO 
 RMS     Displacement     0.008780     0.001200     NO 
 Predicted change in Energy=-7.879383D-02
 GradGradGradGradGradGradGradGradGradGradGradGradGradGradGradGradGradGrad

 Leave Link  103 at Fri May  4 17:21:50 2018, MaxMem= 14763950080 cpu:      2669.6
 (Enter /cm/shared/gaussian/g09.e01/intel64-sandybridge/g09/l9999.exe)
 1\1\GINC-POPLE04\Force\RPBE1PBE\CC-pVDZ\Br1H256O128(1-)\M.PELUSO\04-Ma
 y-2018\0\\#p PBE1PBE/cc-pvDZ force Counterpoise=2 noSymm\\forces on ch
 loride comput - NWATER: 128\\-1,1\Br,20.,20.,20.\O,21.32,20.56,22.69\H
 ,21.92,19.84,22.88\H,20.83,20.27,21.93\O,18.11,22.,21.57\H,18.83,21.54
 ,21.14\H,18.16,22.89,21.22\O,20.54,17.96,17.58\H,20.53,18.48,18.38\H,2
 0.56,18.61,16.87\O,16.92,19.02,19.73\H,17.79,19.36,19.96\H,16.54,18.74
 ,20.56\O,20.33,16.68,20.54\H,20.45,17.61,20.34\H,19.39,16.58,20.63\O,1
 8.65,22.88,18.55\H,19.27,23.32,17.97\H,19.09,22.07,18.8\O,21.89,22.14,
 18.21\H,21.79,21.79,19.09\H,22.77,21.87,17.94\O,19.53,19.08,24.24\H,20
 .48,19.21,24.33\H,19.35,19.28,23.33\O,17.18,20.01,23.22\H,17.78,19.87,
 23.96\H,17.47,20.83,22.83\O,17.29,18.02,17.04\H,18.11,17.53,17.08\H,17
 .13,18.31,17.94\O,19.57,22.54,23.84\H,20.47,22.29,23.6\H,19.13,22.66,2
 3.\O,24.31,20.02,20.19\H,24.69,19.28,20.67\H,24.73,19.99,19.33\O,19.02
 ,15.26,18.2\H,19.56,16.05,18.1\H,18.48,15.44,18.97\O,17.11,16.12,20.05
 \H,16.69,16.96,19.87\H,16.45,15.62,20.54\O,22.33,18.34,23.68\H,21.73,1
 7.63,23.43\H,23.17,18.09,23.29\O,15.8,18.15,21.95\H,15.67,17.45,22.6\H
 ,16.32,18.81,22.41\O,22.73,15.47,19.44\H,21.99,15.9,19.88\H,22.82,15.9
 4,18.61\O,21.14,19.83,15.5\H,21.54,19.62,14.66\H,21.51,20.68,15.75\O,2
 0.85,24.41,17.13\H,21.24,23.67,17.59\H,21.32,25.18,17.47\O,14.87,21.89
 ,20.63\H,15.64,21.33,20.52\H,15.13,22.73,20.26\O,16.71,22.32,16.36\H,1
 6.7,21.55,15.78\H,17.56,22.28,16.8\O,24.2,22.88,21.97\H,23.9,22.17,21.
 4\H,25.16,22.81,21.95\O,22.71,16.44,16.73\H,22.05,17.11,16.94\H,22.34,
 15.96,15.99\O,16.36,24.14,19.85\H,16.99,23.59,19.37\H,16.77,25.,19.88\
 O,21.25,16.01,22.96\H,21.49,15.97,22.03\H,20.32,15.78,22.97\O,18.74,20
 .44,14.77\H,19.6,20.45,15.19\H,18.6,19.52,14.54\O,14.35,17.88,19.46\H,
 15.12,18.45,19.42\H,14.14,17.83,20.39\O,18.53,15.44,22.65\H,17.77,15.4
 5,22.07\H,18.17,15.49,23.53\O,15.85,19.85,15.42\H,16.23,19.15,15.95\H,
 14.91,19.8,15.6\O,18.88,21.26,26.13\H,19.06,21.73,25.31\H,19.44,20.49,
 26.09\O,23.31,25.21,21.19\H,23.38,24.34,21.57\H,24.12,25.33,20.7\O,19.
 79,23.45,14.61\H,19.01,22.95,14.83\H,20.23,23.59,15.45\O,23.39,22.95,2
 4.69\H,23.72,22.08,24.9\H,23.61,23.07,23.76\O,15.23,16.37,16.17\H,14.4
 5,16.48,16.7\H,15.86,16.98,16.55\O,19.14,17.41,26.31\H,18.47,16.86,25.
 9\H,19.05,18.25,25.87\O,24.77,16.91,22.63\H,25.46,17.19,22.04\H,24.89,
 15.97,22.72\O,14.25,20.96,23.74\H,14.18,21.14,22.8\H,15.19,20.93,23.91
 \O,25.75,20.61,17.58\H,26.51,21.2,17.57\H,25.53,20.5,16.65\O,25.5,17.2
 6,16.84\H,24.57,17.06,16.86\H,25.9,16.49,16.44\O,23.75,24.41,16.98\H,2
 3.67,23.66,16.39\H,24.5,24.2,17.53\O,16.35,24.91,16.28\H,16.46,23.97,1
 6.33\H,16.91,25.19,15.55\O,20.31,12.91,17.71\H,21.08,12.78,18.27\H,19.
 91,13.72,18.02\O,24.68,14.44,22.03\H,24.12,14.97,21.47\H,24.32,13.56,2
 1.96\O,22.41,18.36,13.71\H,22.05,17.57,14.1\H,22.56,18.12,12.79\O,13.7
 8,22.73,17.5\H,14.56,22.58,16.97\H,14.02,23.43,18.1\O,18.48,17.89,13.7
 7\H,18.9,17.03,13.82\H,17.78,17.78,13.14\O,17.21,13.41,17.06\H,17.44,1
 2.49,17.17\H,17.91,13.89,17.5\O,26.58,18.55,21.63\H,26.45,19.1,22.4\H,
 27.49,18.69,21.37\O,12.24,21.47,20.61\H,13.19,21.43,20.6\H,12.03,22.36
 ,20.33\O,16.58,22.3,26.03\H,17.36,21.78,26.23\H,16.92,23.12,25.67\O,25
 .21,19.44,15.04\H,24.42,19.14,14.6\H,25.39,18.76,15.69\O,22.78,12.71,1
 9.18\H,23.58,12.44,18.73\H,22.9,13.65,19.33\O,22.43,14.44,25.11\H,21.6
 2,13.94,25.08\H,22.38,15.03,24.36\O,21.37,27.48,22.06\H,20.61,27.77,21
 .55\H,21.61,26.64,21.68\O,22.36,26.67,17.81\H,22.96,27.11,18.4\H,22.86
 ,25.93,17.46\O,14.,25.15,20.83\H,14.78,24.73,20.48\H,14.18,25.27,21.76
 \O,27.57,18.51,18.65\H,27.47,17.56,18.69\H,26.75,18.82,18.28\O,22.09,1
 7.01,26.87\H,21.31,17.43,26.49\H,22.14,16.16,26.45\O,16.21,14.26,21.8\
 H,16.69,13.52,22.17\H,15.36,13.89,21.54\O,24.34,20.67,25.65\H,24.34,19
 .78,26.\H,24.49,21.23,26.42\O,16.91,26.21,22.45\H,16.62,25.55,23.09\H,
 16.27,26.92,22.53\O,17.12,20.24,12.32\H,17.66,20.21,13.11\H,16.33,20.7
 2,12.59\O,14.99,16.24,23.74\H,14.68,15.39,23.44\H,14.34,16.53,24.38\O,
 17.29,26.94,17.83\H,16.98,26.13,17.4\H,16.51,27.49,17.87\O,17.32,15.2,
 25.05\H,17.04,14.84,25.89\H,16.51,15.49,24.64\O,21.25,24.58,26.32\H,21
 .9,24.21,25.72\H,20.77,25.22,25.79\O,26.51,20.32,23.82\H,25.84,20.44,2
 4.5\H,27.05,21.11,23.88\O,21.09,12.66,22.09\H,20.86,13.21,22.84\H,20.3
 9,12.01,22.04\O,21.74,15.69,14.2\H,20.83,15.4,14.09\H,22.27,14.97,13.8
 6\O,15.08,24.44,23.75\H,15.06,25.05,24.49\H,14.9,23.58,24.14\O,24.61,1
 7.99,26.35\H,24.83,17.94,25.42\H,23.71,17.67,26.4\O,17.82,24.93,25.67\
 H,18.5,25.34,25.13\H,18.12,25.06,26.57\O,25.99,24.91,20.37\H,26.03,24.
 72,19.43\H,26.35,24.13,20.79\O,16.89,14.56,14.83\H,16.84,14.,15.6\H,16
 .44,15.37,15.08\O,13.33,20.15,15.98\H,13.04,20.32,16.87\H,13.22,20.99,
 15.52\O,27.05,22.65,21.4\H,27.76,22.96,21.97\H,27.42,21.88,20.97\O,11.
 98,17.46,18.19\H,11.56,18.28,17.94\H,12.83,17.72,18.55\O,19.49,13.57,2
 5.13\H,19.54,13.66,26.09\H,18.7,14.04,24.89\O,18.19,26.45,14.92\H,18.5
 8,26.48,15.79\H,18.9,26.71,14.33\O,22.93,21.82,12.53\H,23.33,21.38,11.
 77\H,22.01,21.57,12.49\O,24.61,23.34,14.38\H,24.51,24.26,14.14\H,24.01
 ,22.88,13.79\O,19.23,14.84,13.63\H,18.45,14.73,14.17\H,19.49,13.94,13.
 41\O,19.39,28.33,19.48\H,18.6,27.87,19.2\H,19.26,28.48,20.41\O,19.79,2
 3.15,28.1\H,20.11,23.8,27.48\H,19.24,22.57,27.58\O,19.32,23.72,12.\H,1
 9.84,23.03,11.59\H,19.65,23.76,12.9\O,26.53,24.25,17.9\H,27.13,23.53,1
 7.69\H,26.97,25.03,17.56\O,24.55,25.45,24.99\H,25.45,25.38,24.66\H,24.
 28,24.54,25.15\O,13.23,14.45,19.43\H,12.83,14.49,18.57\H,13.32,15.36,1
 9.7\O,28.47,20.73,20.31\H,28.21,19.99,19.76\H,29.18,21.16,19.83\O,14.9
 4,19.09,26.5\H,14.17,19.58,26.8\H,15.67,19.48,26.97\O,18.62,28.43,22.3
 \H,18.3,28.83,23.11\H,18.01,27.71,22.14\O,19.7,26.84,24.68\H,19.36,27.
 3,23.91\H,20.24,27.49,25.12\O,23.25,28.08,20.01\H,24.,28.61,20.26\H,22
 .91,27.74,20.83\O,21.72,21.14,28.11\H,21.06,21.83,28.04\H,22.55,21.57,
 27.92\O,23.58,12.01,22.13\H,23.4,11.37,22.82\H,22.73,12.38,21.92\O,11.
 32,20.23,18.34\H,11.63,20.48,19.21\H,10.68,20.9,18.11\O,20.77,27.82,15
 .89\H,21.16,27.73,16.76\H,21.46,27.56,15.28\O,12.15,19.15,25.2\H,13.02
 ,19.37,24.86\H,12.06,19.67,25.99\O,19.19,17.67,29.08\H,19.27,17.49,28.
 14\H,18.5,18.33,29.14\O,11.84,24.01,20.08\H,11.5,24.51,19.34\H,12.65,2
 4.46,20.32\O,23.2,27.79,24.02\H,23.79,27.04,24.13\H,22.57,27.5,23.37\O
 ,25.26,14.5,24.77\H,24.34,14.49,25.03\H,25.25,14.31,23.83\O,14.1,22.03
 ,27.22\H,14.54,21.99,28.06\H,14.8,22.1,26.58\O,10.84,19.42,22.26\H,11.
 17,18.97,23.03\H,11.56,19.98,21.98\O,17.05,19.62,28.55\H,16.38,20.01,2
 9.12\H,17.67,20.33,28.39\O,18.75,11.56,23.45\H,19.39,10.91,23.71\H,18.
 9,12.3,24.03\O,27.24,23.37,14.97\H,26.34,23.11,14.75\H,27.76,23.05,14.
 23\O,22.02,18.6,29.2\H,22.16,18.12,28.38\H,21.95,19.51,28.93\O,16.41,1
 6.62,12.46\H,16.66,15.82,12.92\H,15.46,16.65,12.55\O,13.81,14.31,14.92
 \H,14.53,14.77,15.35\H,13.11,14.96,14.85\O,13.87,26.21,15.7\H,14.73,25
 .78,15.78\H,13.31,25.74,16.32\O,13.73,23.13,14.34\H,13.95,22.52,13.63\
 H,14.32,23.87,14.21\O,12.16,22.33,25.54\H,12.81,22.57,26.2\H,12.67,22.
 2,24.74\O,22.61,24.59,12.21\H,22.01,24.67,11.46\H,22.81,23.66,12.25\O,
 28.33,22.04,16.93\H,27.83,22.47,16.24\H,28.81,21.35,16.48\O,16.39,23.0
 9,11.51\H,16.54,22.67,10.67\H,17.23,23.04,11.96\O,20.56,15.45,11.34\H,
 20.15,15.44,12.2\H,19.9,15.85,10.77\O,18.7,29.18,16.83\H,18.27,28.47,1
 7.32\H,19.52,28.79,16.54\O,26.96,20.13,12.81\H,26.35,20.08,13.55\H,27.
 66,19.52,13.04\O,14.3,16.47,26.97\H,13.57,16.6,27.57\H,14.66,17.35,26.
 83\O,27.6,14.9,18.6\H,27.47,14.85,19.55\H,27.39,14.02,18.28\O,21.32,29
 .68,18.6\H,22.15,29.19,18.64\H,20.65,29.02,18.76\O,19.68,10.16,18.61\H
 ,19.99,11.,18.3\H,19.22,9.78,17.87\O,26.32,14.66,16.05\H,25.68,14.03,1
 5.72\H,26.8,14.17,16.72\O,22.5,26.86,13.6\H,23.4,27.,13.33\H,22.31,25.
 95,13.35\O,20.33,10.78,15.71\H,20.8,11.01,14.92\H,20.36,11.57,16.25\O,
 15.78,25.05,13.46\H,15.96,24.32,12.86\H,16.52,25.64,13.35\O,21.77,9.97
 ,20.44\H,20.96,9.74,19.99\H,21.91,10.89,20.24\\Version=ES64L-G09RevE.0
 1\HF=-9773.4767355\RMSD=9.776e-10\RMSF=1.131e-02\Dipole=10.4652236,-6.
 4570062,-4.7628156\Quadrupole=862.2688145,-572.115608,-290.1532065,-12
 44.1961453,-1364.1111422,-1772.2933135\PG=C01 [X(Br1H256O128)]\\@


 NATURE WILL TELL YOU A DIRECT LIE IF SHE CAN.

                                -- CHARLES DARWIN
 Job cpu time:       7 days 17 hours 28 minutes 38.3 seconds.
 File lengths (MBytes):  RWF=   7285 Int=      0 D2E=      0 Chk=   2411 Scr=      1
 Normal termination of Gaussian 09 at Fri May  4 17:22:40 2018.
