 Entering Gaussian System, Link 0=/cm/shared/gaussian/g09.e01/intel64-sandybridge/g09/g09
 Initial command:
 /cm/shared/gaussian/g09.e01/intel64-sandybridge/g09/l1.exe "/local/scratch/m.peluso/128_wat/370/Gau-4599.inp" -scrdir="/local/scratch/m.peluso/128_wat/370/"
 Entering Link 1 = /cm/shared/gaussian/g09.e01/intel64-sandybridge/g09/l1.exe PID=      4600.
  
 Copyright (c) 1988,1990,1992,1993,1995,1998,2003,2009,2015,
            Gaussian, Inc.  All Rights Reserved.
  
 This is part of the Gaussian(R) 09 program.  It is based on
 the Gaussian(R) 03 system (copyright 2003, Gaussian, Inc.),
 the Gaussian(R) 98 system (copyright 1998, Gaussian, Inc.),
 the Gaussian(R) 94 system (copyright 1995, Gaussian, Inc.),
 the Gaussian 92(TM) system (copyright 1992, Gaussian, Inc.),
 the Gaussian 90(TM) system (copyright 1990, Gaussian, Inc.),
 the Gaussian 88(TM) system (copyright 1988, Gaussian, Inc.),
 the Gaussian 86(TM) system (copyright 1986, Carnegie Mellon
 University), and the Gaussian 82(TM) system (copyright 1983,
 Carnegie Mellon University). Gaussian is a federally registered
 trademark of Gaussian, Inc.
  
 This software contains proprietary and confidential information,
 including trade secrets, belonging to Gaussian, Inc.
  
 This software is provided under written license and may be
 used, copied, transmitted, or stored only in accord with that
 written license.
  
 The following legend is applicable only to US Government
 contracts under FAR:
  
                    RESTRICTED RIGHTS LEGEND
  
 Use, reproduction and disclosure by the US Government is
 subject to restrictions as set forth in subparagraphs (a)
 and (c) of the Commercial Computer Software - Restricted
 Rights clause in FAR 52.227-19.
  
 Gaussian, Inc.
 340 Quinnipiac St., Bldg. 40, Wallingford CT 06492
  
  
 ---------------------------------------------------------------
 Warning -- This program may not be used in any manner that
 competes with the business of Gaussian, Inc. or will provide
 assistance to any competitor of Gaussian, Inc.  The licensee
 of this program is prohibited from giving any competitor of
 Gaussian, Inc. access to this program.  By using this program,
 the user acknowledges that Gaussian, Inc. is engaged in the
 business of creating and licensing software in the field of
 computational chemistry and represents and warrants to the
 licensee that it is not a competitor of Gaussian, Inc. and that
 it will not use this program in any manner prohibited above.
 ---------------------------------------------------------------
  

 Cite this work as:
 Gaussian 09, Revision E.01,
 M. J. Frisch, G. W. Trucks, H. B. Schlegel, G. E. Scuseria, 
 M. A. Robb, J. R. Cheeseman, G. Scalmani, V. Barone, B. Mennucci, 
 G. A. Petersson, H. Nakatsuji, M. Caricato, X. Li, H. P. Hratchian, 
 A. F. Izmaylov, J. Bloino, G. Zheng, J. L. Sonnenberg, M. Hada, 
 M. Ehara, K. Toyota, R. Fukuda, J. Hasegawa, M. Ishida, T. Nakajima, 
 Y. Honda, O. Kitao, H. Nakai, T. Vreven, J. A. Montgomery, Jr., 
 J. E. Peralta, F. Ogliaro, M. Bearpark, J. J. Heyd, E. Brothers, 
 K. N. Kudin, V. N. Staroverov, T. Keith, R. Kobayashi, J. Normand, 
 K. Raghavachari, A. Rendell, J. C. Burant, S. S. Iyengar, J. Tomasi, 
 M. Cossi, N. Rega, J. M. Millam, M. Klene, J. E. Knox, J. B. Cross, 
 V. Bakken, C. Adamo, J. Jaramillo, R. Gomperts, R. E. Stratmann, 
 O. Yazyev, A. J. Austin, R. Cammi, C. Pomelli, J. W. Ochterski, 
 R. L. Martin, K. Morokuma, V. G. Zakrzewski, G. A. Voth, 
 P. Salvador, J. J. Dannenberg, S. Dapprich, A. D. Daniels, 
 O. Farkas, J. B. Foresman, J. V. Ortiz, J. Cioslowski, 
 and D. J. Fox, Gaussian, Inc., Wallingford CT, 2013.
 
 ******************************************
 Gaussian 09:  ES64L-G09RevE.01 30-Nov-2015
                 8-May-2018 
 ******************************************
 %Mem=110GB
 %NProcShared=64
 Will use up to   64 processors via shared memory.
 %chk=snap88.chk
 ----------------------------------------------
 #p PBE1PBE/cc-pvDZ force Counterpoise=2 noSymm
 ----------------------------------------------
 1/10=7,30=1,38=1,62=2/1,3;
 2/12=2,15=1,17=6,18=5,40=1/2;
 1/10=7,30=1,38=1,53=2,62=2,63=101/22;
 3/5=16,11=2,16=1,25=1,30=1,71=1,74=-13/1,2,3;
 4//1;
 5/5=2,38=5/2;
 6/7=2,8=2,9=2,10=2,28=1/1;
 7/7=1,29=1,30=1,33=-1/1,2,3,16;
 1/10=7,30=1,53=2,62=2,63=101/22;
 3/5=7,6=11,11=2,16=1,25=1,30=1,71=1,74=-13,82=7/1,2,3;
 4//1;
 5/5=2,38=5/2;
 6/7=2,8=2,9=2,10=2,28=1/1;
 7/7=1,29=1,30=1,33=-1/1,2,3,16;
 1/10=7,30=1,53=2,62=2,63=101/22(-5);
 7/9=1,29=1,44=-1/16;
 1/10=7,30=1,62=2/3;
 99//99;
 Leave Link    1 at Tue May  8 01:43:32 2018, MaxMem= 14763950080 cpu:       175.0
 (Enter /cm/shared/gaussian/g09.e01/intel64-sandybridge/g09/l101.exe)
 ---------------------------------------
 forces on chloride comput - NWATER: 128
 ---------------------------------------
 Symbolic Z-matrix:
 Charge = -1 Multiplicity = 1 in supermolecule
 Charge = -1 Multiplicity = 1 in fragment      1.
 Charge =  0 Multiplicity = 1 in fragment      2.
 Br(Fragment=1)        20.       20.       20. 
 O(Fragment=2)         19.03     18.46     22.71 
 H(Fragment=2)         19.05     18.84     21.83 
 H(Fragment=2)         18.42     17.73     22.64 
 O(Fragment=2)         22.83     21.5      18.98 
 H(Fragment=2)         21.92     21.25     19.16 
 H(Fragment=2)         23.33     21.13     19.7 
 O(Fragment=2)         18.57     22.43     18.05 
 H(Fragment=2)         18.73     21.64     18.55 
 H(Fragment=2)         19.32     22.5      17.46 
 O(Fragment=2)         21.02     20.5      23.15 
 H(Fragment=2)         21.2      20.56     22.22 
 H(Fragment=2)         20.25     19.93     23.21 
 O(Fragment=2)         16.88     21.11     20.85 
 H(Fragment=2)         16.02     20.7      20.89 
 H(Fragment=2)         17.43     20.48     20.39 
 O(Fragment=2)         17.04     18.32     20.32 
 H(Fragment=2)         16.69     17.44     20.17 
 H(Fragment=2)         17.98     18.23     20.13 
 O(Fragment=2)         20.63     18.65     16.66 
 H(Fragment=2)         20.26     19.19     15.97 
 H(Fragment=2)         20.16     18.91     17.45 
 O(Fragment=2)         21.44     16.69     20.61 
 H(Fragment=2)         22.31     16.43     20.33 
 H(Fragment=2)         21.38     17.62     20.4 
 O(Fragment=2)         19.33     22.81     22.41 
 H(Fragment=2)         20.27     22.88     22.27 
 H(Fragment=2)         19.03     22.22     21.72 
 O(Fragment=2)         23.48     19.23     20.97 
 H(Fragment=2)         23.66     18.6      20.27 
 H(Fragment=2)         23.52     18.7      21.77 
 O(Fragment=2)         23.35     19.52     17.22 
 H(Fragment=2)         23.17     20.22     17.84 
 H(Fragment=2)         22.49     19.12     17.05 
 O(Fragment=2)         20.97     16.51     23.32 
 H(Fragment=2)         20.41     17.18     22.93 
 H(Fragment=2)         20.89     15.76     22.73 
 O(Fragment=2)         22.03     23.32     21.55 
 H(Fragment=2)         22.04     23.9      20.79 
 H(Fragment=2)         22.87     22.87     21.53 
 O(Fragment=2)         19.43     15.01     19.53 
 H(Fragment=2)         18.92     15.32     18.78 
 H(Fragment=2)         19.95     15.77     19.79 
 O(Fragment=2)         21.79     24.22     18.59 
 H(Fragment=2)         21.       23.82     18.24 
 H(Fragment=2)         22.44     23.52     18.59 
 O(Fragment=2)         24.5      21.73     21.42 
 H(Fragment=2)         24.54     21.84     22.37 
 H(Fragment=2)         24.04     20.9      21.29 
 O(Fragment=2)         16.73     24.14     20.05 
 H(Fragment=2)         16.9      24.08     20.99 
 H(Fragment=2)         17.21     23.41     19.68 
 O(Fragment=2)         20.94     22.4      16.37 
 H(Fragment=2)         21.18     23.15     15.82 
 H(Fragment=2)         21.57     21.72     16.14 
 O(Fragment=2)         17.16     18.11     16.25 
 H(Fragment=2)         17.09     18.21     15.31 
 H(Fragment=2)         17.24     19.01     16.59 
 O(Fragment=2)         23.15     18.16     23.66 
 H(Fragment=2)         22.38     17.64     23.43 
 H(Fragment=2)         23.77     17.52     24.02 
 O(Fragment=2)         16.37     21.52     23.81 
 H(Fragment=2)         15.77     21.83     23.12 
 H(Fragment=2)         16.72     20.7      23.48 
 O(Fragment=2)         21.71     22.34     24.96 
 H(Fragment=2)         21.57     21.68     24.28 
 H(Fragment=2)         21.2      23.09     24.68 
 O(Fragment=2)         20.88     15.98     16.22 
 H(Fragment=2)         20.03     15.75     16.59 
 H(Fragment=2)         20.95     16.93     16.35 
 O(Fragment=2)         18.12     18.92     25.5 
 H(Fragment=2)         18.38     19.07     24.59 
 H(Fragment=2)         18.22     17.97     25.62 
 O(Fragment=2)         24.75     17.81     19.12 
 H(Fragment=2)         25.65     18.15     19.17 
 H(Fragment=2)         24.38     18.2      18.33 
 O(Fragment=2)         16.38     22.12     16.26 
 H(Fragment=2)         16.91     22.84     16.6 
 H(Fragment=2)         16.12     21.62     17.03 
 O(Fragment=2)         19.42     20.43     14.87 
 H(Fragment=2)         18.65     20.55     14.31 
 H(Fragment=2)         19.75     21.31     15.02 
 O(Fragment=2)         14.46     19.89     21.83 
 H(Fragment=2)         14.23     19.32     22.57 
 H(Fragment=2)         14.99     19.33     21.25 
 O(Fragment=2)         18.91     23.61     24.85 
 H(Fragment=2)         18.88     22.97     24.13 
 H(Fragment=2)         18.05     24.03     24.84 
 O(Fragment=2)         16.88     17.01     22.94 
 H(Fragment=2)         16.06     17.36     23.3 
 H(Fragment=2)         17.07     16.24     23.47 
 O(Fragment=2)         14.71     20.26     18.5 
 H(Fragment=2)         13.76     20.37     18.58 
 H(Fragment=2)         14.84     19.31     18.54 
 O(Fragment=2)         24.11     20.94     24.04 
 H(Fragment=2)         23.76     20.05     23.91 
 H(Fragment=2)         23.41     21.41     24.49 
 O(Fragment=2)         18.5      25.74     18.59 
 H(Fragment=2)         18.68     26.33     19.33 
 H(Fragment=2)         18.07     24.98     18.99 
 O(Fragment=2)         18.29     15.51     17.06 
 H(Fragment=2)         17.54     14.92     17.13 
 H(Fragment=2)         17.94     16.28     16.6 
 O(Fragment=2)         17.17     24.65     22.95 
 H(Fragment=2)         18.01     24.2      23.04 
 H(Fragment=2)         16.54     23.95     22.79 
 O(Fragment=2)         21.32     13.81     21.5 
 H(Fragment=2)         20.94     14.35     20.82 
 H(Fragment=2)         22.26     14.01     21.47 
 O(Fragment=2)         15.74     15.88     20.35 
 H(Fragment=2)         15.98     15.95     21.27 
 H(Fragment=2)         15.86     14.95     20.14 
 O(Fragment=2)         14.34     23.03     18.97 
 H(Fragment=2)         14.72     22.19     18.72 
 H(Fragment=2)         15.09     23.57     19.21 
 O(Fragment=2)         14.83     22.91     22.08 
 H(Fragment=2)         13.98     22.81     22.49 
 H(Fragment=2)         14.71     22.58     21.19 
 O(Fragment=2)         18.73     16.19     25.48 
 H(Fragment=2)         19.37     16.11     26.19 
 H(Fragment=2)         19.26     16.29     24.69 
 O(Fragment=2)         25.65     23.84     20.47 
 H(Fragment=2)         25.28     24.43     21.13 
 H(Fragment=2)         25.23     23.       20.64 
 O(Fragment=2)         23.88     15.3      19.97 
 H(Fragment=2)         24.39     15.33     20.78 
 H(Fragment=2)         24.38     15.84     19.35 
 O(Fragment=2)         26.59     20.12     20.45 
 H(Fragment=2)         26.01     20.81     20.77 
 H(Fragment=2)         26.69     20.31     19.52 
 O(Fragment=2)         22.4      20.54     14.35 
 H(Fragment=2)         23.2      21.03     14.58 
 H(Fragment=2)         22.72     19.66     14.15 
 O(Fragment=2)         23.94     22.38     15.84 
 H(Fragment=2)         24.48     22.69     16.57 
 H(Fragment=2)         23.26     23.05     15.75 
 O(Fragment=2)         25.54     19.69     15.6 
 H(Fragment=2)         24.97     19.3      14.93 
 H(Fragment=2)         24.96     19.86     16.34 
 O(Fragment=2)         19.96     17.02     13.86 
 H(Fragment=2)         19.67     17.88     14.15 
 H(Fragment=2)         20.41     16.65     14.62 
 O(Fragment=2)         23.07     14.48     17.39 
 H(Fragment=2)         22.38     15.01     17. 
 H(Fragment=2)         22.99     14.64     18.33 
 O(Fragment=2)         26.45     17.67     21.59 
 H(Fragment=2)         27.25     17.63     21.08 
 H(Fragment=2)         25.98     18.44     21.26 
 O(Fragment=2)         23.01     26.56     19.88 
 H(Fragment=2)         22.95     26.33     20.81 
 H(Fragment=2)         22.62     25.82     19.42 
 O(Fragment=2)         13.67     17.47     19.74 
 H(Fragment=2)         14.38     16.87     19.96 
 H(Fragment=2)         12.98     16.91     19.39 
 O(Fragment=2)         16.95     21.05     13.87 
 H(Fragment=2)         16.65     21.47     14.67 
 H(Fragment=2)         16.16     20.91     13.35 
 O(Fragment=2)         21.16     25.21     24.76 
 H(Fragment=2)         20.74     25.84     25.35 
 H(Fragment=2)         20.53     25.09     24.05 
 O(Fragment=2)         20.19     25.94     15.98 
 H(Fragment=2)         19.55     26.59     15.67 
 H(Fragment=2)         19.91     25.74     16.87 
 O(Fragment=2)         15.27     15.57     16.46 
 H(Fragment=2)         15.8      16.36     16.5 
 H(Fragment=2)         14.4      15.87     16.2 
 O(Fragment=2)         18.27     27.03     21.08 
 H(Fragment=2)         18.1      26.18     21.47 
 H(Fragment=2)         18.6      27.57     21.8 
 O(Fragment=2)         17.26     24.9      14.92 
 H(Fragment=2)         16.58     24.37     14.5 
 H(Fragment=2)         17.89     24.26     15.26 
 O(Fragment=2)         19.09     22.96     13.95 
 H(Fragment=2)         19.84     22.7      13.42 
 H(Fragment=2)         18.35     22.47     13.58 
 O(Fragment=2)         22.25     24.39     15.18 
 H(Fragment=2)         21.99     24.28     14.27 
 H(Fragment=2)         21.59     24.98     15.55 
 O(Fragment=2)         16.64     21.98     26.62 
 H(Fragment=2)         16.4      21.64     25.75 
 H(Fragment=2)         17.05     21.23     27.05 
 O(Fragment=2)         26.73     20.91     17.95 
 H(Fragment=2)         26.47     21.82     17.82 
 H(Fragment=2)         26.42     20.47     17.16 
 O(Fragment=2)         14.48     18.11     24.05 
 H(Fragment=2)         14.18     17.2      23.96 
 H(Fragment=2)         13.87     18.5      24.67 
 O(Fragment=2)         25.91     23.6      17.92 
 H(Fragment=2)         25.9      24.36     17.34 
 H(Fragment=2)         25.82     23.96     18.8 
 O(Fragment=2)         15.57     23.93     25.21 
 H(Fragment=2)         15.95     23.39     25.89 
 H(Fragment=2)         15.51     23.36     24.45 
 O(Fragment=2)         20.4      13.5      24.23 
 H(Fragment=2)         21.09     13.86     24.78 
 H(Fragment=2)         20.69     13.7      23.33 
 O(Fragment=2)         20.71     23.32     27.39 
 H(Fragment=2)         21.3      23.99     27.04 
 H(Fragment=2)         20.22     23.       26.63 
 O(Fragment=2)         20.09     12.27     17.68 
 H(Fragment=2)         20.99     12.12     17.39 
 H(Fragment=2)         19.9      13.17     17.42 
 O(Fragment=2)         23.04     26.55     22.5 
 H(Fragment=2)         22.84     27.28     23.08 
 H(Fragment=2)         23.23     25.81     23.09 
 O(Fragment=2)         16.58     26.97     17.18 
 H(Fragment=2)         16.35     26.6      16.33 
 H(Fragment=2)         17.23     26.37     17.53 
 O(Fragment=2)         15.7      18.15     26.87 
 H(Fragment=2)         14.94     17.57     26.81 
 H(Fragment=2)         15.96     18.31     25.96 
 O(Fragment=2)         26.55     20.71     25.02 
 H(Fragment=2)         26.93     20.       24.5 
 H(Fragment=2)         25.62     20.72     24.77 
 O(Fragment=2)         17.02     13.78     22.79 
 H(Fragment=2)         17.71     13.13     22.9 
 H(Fragment=2)         16.46     13.42     22.11 
 O(Fragment=2)         18.09     19.8      28.11 
 H(Fragment=2)         17.7      19.06     28.59 
 H(Fragment=2)         17.98     19.56     27.19 
 O(Fragment=2)         25.67     15.19     22.54 
 H(Fragment=2)         25.92     16.11     22.57 
 H(Fragment=2)         25.81     14.94     21.62 
 O(Fragment=2)         16.89     13.33     18.29 
 H(Fragment=2)         17.02     12.48     18.72 
 H(Fragment=2)         16.03     13.62     18.57 
 O(Fragment=2)         23.93     18.32     13.66 
 H(Fragment=2)         24.76     18.39     13.19 
 H(Fragment=2)         23.34     17.87     13.05 
 O(Fragment=2)         27.35     17.69     18.28 
 H(Fragment=2)         27.75     18.09     17.51 
 H(Fragment=2)         26.74     17.04     17.93 
 O(Fragment=2)         25.15     24.78     23.12 
 H(Fragment=2)         24.67     25.21     23.83 
 H(Fragment=2)         25.92     25.34     22.98 
 O(Fragment=2)         19.33     11.85     21.03 
 H(Fragment=2)         20.03     12.26     21.54 
 H(Fragment=2)         19.33     12.32     20.2 
 O(Fragment=2)         23.51     23.3      27.05 
 H(Fragment=2)         23.51     23.11     27.99 
 H(Fragment=2)         22.92     22.65     26.67 
 O(Fragment=2)         24.79     26.32     17.6 
 H(Fragment=2)         24.78     27.2      17.22 
 H(Fragment=2)         24.12     26.34     18.28 
 O(Fragment=2)         26.26     14.79     17.81 
 H(Fragment=2)         25.71     15.36     17.28 
 H(Fragment=2)         25.92     13.91     17.63 
 O(Fragment=2)         19.42     13.9      13.84 
 H(Fragment=2)         19.55     14.53     13.14 
 H(Fragment=2)         19.02     14.4      14.55 
 O(Fragment=2)         11.89     18.08     22.69 
 H(Fragment=2)         12.81     17.86     22.49 
 H(Fragment=2)         11.72     18.86     22.17 
 O(Fragment=2)         16.51     14.74     25.41 
 H(Fragment=2)         16.76     14.31     24.6 
 H(Fragment=2)         17.3      15.21     25.68 
 O(Fragment=2)         23.66     25.35     25.36 
 H(Fragment=2)         23.9      24.64     25.96 
 H(Fragment=2)         22.71     25.28     25.26 
 O(Fragment=2)         25.03     16.96     25.33 
 H(Fragment=2)         25.9      16.72     25.62 
 H(Fragment=2)         24.74     17.64     25.94 
 O(Fragment=2)         23.1      15.1      25.86 
 H(Fragment=2)         23.65     15.87     25.74 
 H(Fragment=2)         23.69     14.44     26.24 
 O(Fragment=2)         16.71     18.01     13.03 
 H(Fragment=2)         16.45     17.1      12.9 
 H(Fragment=2)         17.18     18.25     12.23 
 O(Fragment=2)         22.06     17.1      12.17 
 H(Fragment=2)         21.58     17.78     11.7 
 H(Fragment=2)         21.44     16.77     12.82 
 O(Fragment=2)         23.4      14.53     14.23 
 H(Fragment=2)         24.02     13.81     14.15 
 H(Fragment=2)         22.92     14.35     15.04 
 O(Fragment=2)         25.97     16.51     15.82 
 H(Fragment=2)         26.34     15.73     15.4 
 H(Fragment=2)         25.92     17.16     15.13 
 O(Fragment=2)         14.35     26.17     18.59 
 H(Fragment=2)         13.54     25.96     18.13 
 H(Fragment=2)         15.03     26.08     17.93 
 O(Fragment=2)         20.66     18.12     28.39 
 H(Fragment=2)         21.43     18.67     28.39 
 H(Fragment=2)         19.96     18.68     28.05 
 O(Fragment=2)         27.66     18.51     23.94 
 H(Fragment=2)         28.26     17.83     24.24 
 H(Fragment=2)         27.35     18.2      23.09 
 O(Fragment=2)         14.23     18.23     13.95 
 H(Fragment=2)         14.98     18.22     13.36 
 H(Fragment=2)         14.38     17.49     14.54 
 O(Fragment=2)         11.83     19.92     18.83 
 H(Fragment=2)         11.47     20.05     17.96 
 H(Fragment=2)         11.9      18.97     18.93 
 O(Fragment=2)         21.56     28.93     20.37 
 H(Fragment=2)         21.91     28.04     20.34 
 H(Fragment=2)         21.09     28.97     21.21 
 O(Fragment=2)         14.1      15.49     24.16 
 H(Fragment=2)         14.92     15.43     24.66 
 H(Fragment=2)         13.85     14.58     24.01 
 O(Fragment=2)         29.18     20.1      21.33 
 H(Fragment=2)         29.45     19.6      22.1 
 H(Fragment=2)         28.22     20.       21.31 
 O(Fragment=2)         20.76     15.86     27.24 
 H(Fragment=2)         21.62     15.55     26.96 
 H(Fragment=2)         20.94     16.68     27.7 
 O(Fragment=2)         22.15     20.28     11.17 
 H(Fragment=2)         21.32     20.7      10.96 
 H(Fragment=2)         22.43     20.71     11.98 
 O(Fragment=2)         28.01     24.91     20.33 
 H(Fragment=2)         28.74     24.32     20.54 
 H(Fragment=2)         27.23     24.39     20.51 
 O(Fragment=2)         14.96     23.74     14.01 
 H(Fragment=2)         14.3      23.31     14.55 
 H(Fragment=2)         14.49     24.04     13.23 
 O(Fragment=2)         21.92     21.23     28.64 
 H(Fragment=2)         21.7      21.37     29.56 
 H(Fragment=2)         21.53     21.98     28.19 
 O(Fragment=2)         15.36     12.83     20.82 
 H(Fragment=2)         14.95     12.43     20.06 
 H(Fragment=2)         14.89     12.47     21.57 
 O(Fragment=2)         21.19     23.19     12.12 
 H(Fragment=2)         21.32     24.1      11.87 
 H(Fragment=2)         20.66     22.82     11.41 
 O(Fragment=2)         24.82     12.44     17.14 
 H(Fragment=2)         24.3      13.21     16.92 
 H(Fragment=2)         24.22     11.87     17.62 
 O(Fragment=2)         29.28     20.18     18.68 
 H(Fragment=2)         28.45     20.53     18.36 
 H(Fragment=2)         29.17     20.12     19.63 
 O(Fragment=2)         18.68     25.4      12.26 
 H(Fragment=2)         18.52     24.73     12.93 
 H(Fragment=2)         18.06     26.09     12.47 
 O(Fragment=2)         16.03     26.7      25.08 
 H(Fragment=2)         15.72     25.88     24.7 
 H(Fragment=2)         16.98     26.64     25.06 
 O(Fragment=2)         10.99     20.33     21.55 
 H(Fragment=2)         11.2      20.33     20.62 
 H(Fragment=2)         11.61     20.94     21.94 
 O(Fragment=2)         27.7      22.85     23.88 
 H(Fragment=2)         27.31     22.06     24.24 
 H(Fragment=2)         27.       23.49     23.89 
 O(Fragment=2)         14.54     27.18     21.6 
 H(Fragment=2)         14.61     26.79     20.73 
 H(Fragment=2)         13.69     26.88     21.93 
 O(Fragment=2)         12.16     22.86     22.46 
 H(Fragment=2)         11.77     23.46     21.84 
 H(Fragment=2)         11.65     22.97     23.26 
 O(Fragment=2)         16.74     28.89     19.54 
 H(Fragment=2)         16.73     28.34     18.75 
 H(Fragment=2)         16.99     28.29     20.25 
 O(Fragment=2)         11.25     24.04     20.16 
 H(Fragment=2)         12.19     24.21     20.13 
 H(Fragment=2)         11.17     23.11     19.97 
 O(Fragment=2)         27.44     15.15     20.48 
 H(Fragment=2)         28.03     15.9      20.52 
 H(Fragment=2)         27.32     15.       19.54 
 O(Fragment=2)         21.78     28.56     17.48 
 H(Fragment=2)         22.27     29.28     17.1 
 H(Fragment=2)         22.09     28.51     18.39 
 O(Fragment=2)         18.9      26.43     26.09 
 H(Fragment=2)         18.44     27.25     26.3 
 H(Fragment=2)         18.7      25.85     26.82 
 O(Fragment=2)         23.86     17.96     27.79 
 H(Fragment=2)         23.96     18.84     28.14 
 H(Fragment=2)         23.85     17.39     28.56 
 O(Fragment=2)         13.48     13.47     16.63 
 H(Fragment=2)         14.17     14.13     16.52 
 H(Fragment=2)         12.68     13.97     16.74 
 O(Fragment=2)         26.86     23.06     13.59 
 H(Fragment=2)         26.03     22.99     14.06 
 H(Fragment=2)         27.42     23.57     14.17 
 O(Fragment=2)         21.62     12.34     15. 
 H(Fragment=2)         21.78     11.61     14.4 
 H(Fragment=2)         20.87     12.8      14.63 
 O(Fragment=2)         26.34     22.89     26.83 
 H(Fragment=2)         25.46     23.05     27.17 
 H(Fragment=2)         26.22     22.19     26.18 
 O(Fragment=2)         28.87     23.19     17.91 
 H(Fragment=2)         29.27     23.28     18.78 
 H(Fragment=2)         28.03     23.64     17.99 
 O(Fragment=2)         18.94     11.94     25.67 
 H(Fragment=2)         18.36     11.43     25.1 
 H(Fragment=2)         19.4      12.53     25.07 
 O(Fragment=2)         21.36     25.9      12.71 
 H(Fragment=2)         21.31     26.69     12.17 
 H(Fragment=2)         20.46     25.57     12.75 
 
 NAtoms=    385 NQM=      385 NQMF=       0 NMMI=      0 NMMIF=      0
                NMic=       0 NMicF=      0.
                    Isotopes and Nuclear Properties:
 (Nuclear quadrupole moments (NQMom) in fm**2, nuclear magnetic moments (NMagM)
  in nuclear magnetons)

  Atom         1           2           3           4           5           6           7           8           9          10
 IAtWgt=          79          16           1           1          16           1           1          16           1           1
 AtmWgt=  78.9183361  15.9949146   1.0078250   1.0078250  15.9949146   1.0078250   1.0078250  15.9949146   1.0078250   1.0078250
 NucSpn=           3           0           1           1           0           1           1           0           1           1
 AtZEff=   0.0000000   0.0000000   0.0000000   0.0000000   0.0000000   0.0000000   0.0000000   0.0000000   0.0000000   0.0000000
 NQMom=   31.3000000   0.0000000   0.0000000   0.0000000   0.0000000   0.0000000   0.0000000   0.0000000   0.0000000   0.0000000
 NMagM=    2.1063990   0.0000000   2.7928460   2.7928460   0.0000000   2.7928460   2.7928460   0.0000000   2.7928460   2.7928460
 AtZNuc=  35.0000000   8.0000000   1.0000000   1.0000000   8.0000000   1.0000000   1.0000000   8.0000000   1.0000000   1.0000000

  Atom        11          12          13          14          15          16          17          18          19          20
 IAtWgt=          16           1           1          16           1           1          16           1           1          16
 AtmWgt=  15.9949146   1.0078250   1.0078250  15.9949146   1.0078250   1.0078250  15.9949146   1.0078250   1.0078250  15.9949146
 NucSpn=           0           1           1           0           1           1           0           1           1           0
 AtZEff=   0.0000000   0.0000000   0.0000000   0.0000000   0.0000000   0.0000000   0.0000000   0.0000000   0.0000000   0.0000000
 NQMom=    0.0000000   0.0000000   0.0000000   0.0000000   0.0000000   0.0000000   0.0000000   0.0000000   0.0000000   0.0000000
 NMagM=    0.0000000   2.7928460   2.7928460   0.0000000   2.7928460   2.7928460   0.0000000   2.7928460   2.7928460   0.0000000
 AtZNuc=   8.0000000   1.0000000   1.0000000   8.0000000   1.0000000   1.0000000   8.0000000   1.0000000   1.0000000   8.0000000

  Atom        21          22          23          24          25          26          27          28          29          30
 IAtWgt=           1           1          16           1           1          16           1           1          16           1
 AtmWgt=   1.0078250   1.0078250  15.9949146   1.0078250   1.0078250  15.9949146   1.0078250   1.0078250  15.9949146   1.0078250
 NucSpn=           1           1           0           1           1           0           1           1           0           1
 AtZEff=   0.0000000   0.0000000   0.0000000   0.0000000   0.0000000   0.0000000   0.0000000   0.0000000   0.0000000   0.0000000
 NQMom=    0.0000000   0.0000000   0.0000000   0.0000000   0.0000000   0.0000000   0.0000000   0.0000000   0.0000000   0.0000000
 NMagM=    2.7928460   2.7928460   0.0000000   2.7928460   2.7928460   0.0000000   2.7928460   2.7928460   0.0000000   2.7928460
 AtZNuc=   1.0000000   1.0000000   8.0000000   1.0000000   1.0000000   8.0000000   1.0000000   1.0000000   8.0000000   1.0000000

  Atom        31          32          33          34          35          36          37          38          39          40
 IAtWgt=           1          16           1           1          16           1           1          16           1           1
 AtmWgt=   1.0078250  15.9949146   1.0078250   1.0078250  15.9949146   1.0078250   1.0078250  15.9949146   1.0078250   1.0078250
 NucSpn=           1           0           1           1           0           1           1           0           1           1
 AtZEff=   0.0000000   0.0000000   0.0000000   0.0000000   0.0000000   0.0000000   0.0000000   0.0000000   0.0000000   0.0000000
 NQMom=    0.0000000   0.0000000   0.0000000   0.0000000   0.0000000   0.0000000   0.0000000   0.0000000   0.0000000   0.0000000
 NMagM=    2.7928460   0.0000000   2.7928460   2.7928460   0.0000000   2.7928460   2.7928460   0.0000000   2.7928460   2.7928460
 AtZNuc=   1.0000000   8.0000000   1.0000000   1.0000000   8.0000000   1.0000000   1.0000000   8.0000000   1.0000000   1.0000000

  Atom        41          42          43          44          45          46          47          48          49          50
 IAtWgt=          16           1           1          16           1           1          16           1           1          16
 AtmWgt=  15.9949146   1.0078250   1.0078250  15.9949146   1.0078250   1.0078250  15.9949146   1.0078250   1.0078250  15.9949146
 NucSpn=           0           1           1           0           1           1           0           1           1           0
 AtZEff=   0.0000000   0.0000000   0.0000000   0.0000000   0.0000000   0.0000000   0.0000000   0.0000000   0.0000000   0.0000000
 NQMom=    0.0000000   0.0000000   0.0000000   0.0000000   0.0000000   0.0000000   0.0000000   0.0000000   0.0000000   0.0000000
 NMagM=    0.0000000   2.7928460   2.7928460   0.0000000   2.7928460   2.7928460   0.0000000   2.7928460   2.7928460   0.0000000
 AtZNuc=   8.0000000   1.0000000   1.0000000   8.0000000   1.0000000   1.0000000   8.0000000   1.0000000   1.0000000   8.0000000

  Atom        51          52          53          54          55          56          57          58          59          60
 IAtWgt=           1           1          16           1           1          16           1           1          16           1
 AtmWgt=   1.0078250   1.0078250  15.9949146   1.0078250   1.0078250  15.9949146   1.0078250   1.0078250  15.9949146   1.0078250
 NucSpn=           1           1           0           1           1           0           1           1           0           1
 AtZEff=   0.0000000   0.0000000   0.0000000   0.0000000   0.0000000   0.0000000   0.0000000   0.0000000   0.0000000   0.0000000
 NQMom=    0.0000000   0.0000000   0.0000000   0.0000000   0.0000000   0.0000000   0.0000000   0.0000000   0.0000000   0.0000000
 NMagM=    2.7928460   2.7928460   0.0000000   2.7928460   2.7928460   0.0000000   2.7928460   2.7928460   0.0000000   2.7928460
 AtZNuc=   1.0000000   1.0000000   8.0000000   1.0000000   1.0000000   8.0000000   1.0000000   1.0000000   8.0000000   1.0000000

  Atom        61          62          63          64          65          66          67          68          69          70
 IAtWgt=           1          16           1           1          16           1           1          16           1           1
 AtmWgt=   1.0078250  15.9949146   1.0078250   1.0078250  15.9949146   1.0078250   1.0078250  15.9949146   1.0078250   1.0078250
 NucSpn=           1           0           1           1           0           1           1           0           1           1
 AtZEff=   0.0000000   0.0000000   0.0000000   0.0000000   0.0000000   0.0000000   0.0000000   0.0000000   0.0000000   0.0000000
 NQMom=    0.0000000   0.0000000   0.0000000   0.0000000   0.0000000   0.0000000   0.0000000   0.0000000   0.0000000   0.0000000
 NMagM=    2.7928460   0.0000000   2.7928460   2.7928460   0.0000000   2.7928460   2.7928460   0.0000000   2.7928460   2.7928460
 AtZNuc=   1.0000000   8.0000000   1.0000000   1.0000000   8.0000000   1.0000000   1.0000000   8.0000000   1.0000000   1.0000000

  Atom        71          72          73          74          75          76          77          78          79          80
 IAtWgt=          16           1           1          16           1           1          16           1           1          16
 AtmWgt=  15.9949146   1.0078250   1.0078250  15.9949146   1.0078250   1.0078250  15.9949146   1.0078250   1.0078250  15.9949146
 NucSpn=           0           1           1           0           1           1           0           1           1           0
 AtZEff=   0.0000000   0.0000000   0.0000000   0.0000000   0.0000000   0.0000000   0.0000000   0.0000000   0.0000000   0.0000000
 NQMom=    0.0000000   0.0000000   0.0000000   0.0000000   0.0000000   0.0000000   0.0000000   0.0000000   0.0000000   0.0000000
 NMagM=    0.0000000   2.7928460   2.7928460   0.0000000   2.7928460   2.7928460   0.0000000   2.7928460   2.7928460   0.0000000
 AtZNuc=   8.0000000   1.0000000   1.0000000   8.0000000   1.0000000   1.0000000   8.0000000   1.0000000   1.0000000   8.0000000

  Atom        81          82          83          84          85          86          87          88          89          90
 IAtWgt=           1           1          16           1           1          16           1           1          16           1
 AtmWgt=   1.0078250   1.0078250  15.9949146   1.0078250   1.0078250  15.9949146   1.0078250   1.0078250  15.9949146   1.0078250
 NucSpn=           1           1           0           1           1           0           1           1           0           1
 AtZEff=   0.0000000   0.0000000   0.0000000   0.0000000   0.0000000   0.0000000   0.0000000   0.0000000   0.0000000   0.0000000
 NQMom=    0.0000000   0.0000000   0.0000000   0.0000000   0.0000000   0.0000000   0.0000000   0.0000000   0.0000000   0.0000000
 NMagM=    2.7928460   2.7928460   0.0000000   2.7928460   2.7928460   0.0000000   2.7928460   2.7928460   0.0000000   2.7928460
 AtZNuc=   1.0000000   1.0000000   8.0000000   1.0000000   1.0000000   8.0000000   1.0000000   1.0000000   8.0000000   1.0000000

  Atom        91          92          93          94          95          96          97          98          99         100
 IAtWgt=           1          16           1           1          16           1           1          16           1           1
 AtmWgt=   1.0078250  15.9949146   1.0078250   1.0078250  15.9949146   1.0078250   1.0078250  15.9949146   1.0078250   1.0078250
 NucSpn=           1           0           1           1           0           1           1           0           1           1
 AtZEff=   0.0000000   0.0000000   0.0000000   0.0000000   0.0000000   0.0000000   0.0000000   0.0000000   0.0000000   0.0000000
 NQMom=    0.0000000   0.0000000   0.0000000   0.0000000   0.0000000   0.0000000   0.0000000   0.0000000   0.0000000   0.0000000
 NMagM=    2.7928460   0.0000000   2.7928460   2.7928460   0.0000000   2.7928460   2.7928460   0.0000000   2.7928460   2.7928460
 AtZNuc=   1.0000000   8.0000000   1.0000000   1.0000000   8.0000000   1.0000000   1.0000000   8.0000000   1.0000000   1.0000000

  Atom       101         102         103         104         105         106         107         108         109         110
 IAtWgt=          16           1           1          16           1           1          16           1           1          16
 AtmWgt=  15.9949146   1.0078250   1.0078250  15.9949146   1.0078250   1.0078250  15.9949146   1.0078250   1.0078250  15.9949146
 NucSpn=           0           1           1           0           1           1           0           1           1           0
 AtZEff=   0.0000000   0.0000000   0.0000000   0.0000000   0.0000000   0.0000000   0.0000000   0.0000000   0.0000000   0.0000000
 NQMom=    0.0000000   0.0000000   0.0000000   0.0000000   0.0000000   0.0000000   0.0000000   0.0000000   0.0000000   0.0000000
 NMagM=    0.0000000   2.7928460   2.7928460   0.0000000   2.7928460   2.7928460   0.0000000   2.7928460   2.7928460   0.0000000
 AtZNuc=   8.0000000   1.0000000   1.0000000   8.0000000   1.0000000   1.0000000   8.0000000   1.0000000   1.0000000   8.0000000

  Atom       111         112         113         114         115         116         117         118         119         120
 IAtWgt=           1           1          16           1           1          16           1           1          16           1
 AtmWgt=   1.0078250   1.0078250  15.9949146   1.0078250   1.0078250  15.9949146   1.0078250   1.0078250  15.9949146   1.0078250
 NucSpn=           1           1           0           1           1           0           1           1           0           1
 AtZEff=   0.0000000   0.0000000   0.0000000   0.0000000   0.0000000   0.0000000   0.0000000   0.0000000   0.0000000   0.0000000
 NQMom=    0.0000000   0.0000000   0.0000000   0.0000000   0.0000000   0.0000000   0.0000000   0.0000000   0.0000000   0.0000000
 NMagM=    2.7928460   2.7928460   0.0000000   2.7928460   2.7928460   0.0000000   2.7928460   2.7928460   0.0000000   2.7928460
 AtZNuc=   1.0000000   1.0000000   8.0000000   1.0000000   1.0000000   8.0000000   1.0000000   1.0000000   8.0000000   1.0000000

  Atom       121         122         123         124         125         126         127         128         129         130
 IAtWgt=           1          16           1           1          16           1           1          16           1           1
 AtmWgt=   1.0078250  15.9949146   1.0078250   1.0078250  15.9949146   1.0078250   1.0078250  15.9949146   1.0078250   1.0078250
 NucSpn=           1           0           1           1           0           1           1           0           1           1
 AtZEff=   0.0000000   0.0000000   0.0000000   0.0000000   0.0000000   0.0000000   0.0000000   0.0000000   0.0000000   0.0000000
 NQMom=    0.0000000   0.0000000   0.0000000   0.0000000   0.0000000   0.0000000   0.0000000   0.0000000   0.0000000   0.0000000
 NMagM=    2.7928460   0.0000000   2.7928460   2.7928460   0.0000000   2.7928460   2.7928460   0.0000000   2.7928460   2.7928460
 AtZNuc=   1.0000000   8.0000000   1.0000000   1.0000000   8.0000000   1.0000000   1.0000000   8.0000000   1.0000000   1.0000000

  Atom       131         132         133         134         135         136         137         138         139         140
 IAtWgt=          16           1           1          16           1           1          16           1           1          16
 AtmWgt=  15.9949146   1.0078250   1.0078250  15.9949146   1.0078250   1.0078250  15.9949146   1.0078250   1.0078250  15.9949146
 NucSpn=           0           1           1           0           1           1           0           1           1           0
 AtZEff=   0.0000000   0.0000000   0.0000000   0.0000000   0.0000000   0.0000000   0.0000000   0.0000000   0.0000000   0.0000000
 NQMom=    0.0000000   0.0000000   0.0000000   0.0000000   0.0000000   0.0000000   0.0000000   0.0000000   0.0000000   0.0000000
 NMagM=    0.0000000   2.7928460   2.7928460   0.0000000   2.7928460   2.7928460   0.0000000   2.7928460   2.7928460   0.0000000
 AtZNuc=   8.0000000   1.0000000   1.0000000   8.0000000   1.0000000   1.0000000   8.0000000   1.0000000   1.0000000   8.0000000

  Atom       141         142         143         144         145         146         147         148         149         150
 IAtWgt=           1           1          16           1           1          16           1           1          16           1
 AtmWgt=   1.0078250   1.0078250  15.9949146   1.0078250   1.0078250  15.9949146   1.0078250   1.0078250  15.9949146   1.0078250
 NucSpn=           1           1           0           1           1           0           1           1           0           1
 AtZEff=   0.0000000   0.0000000   0.0000000   0.0000000   0.0000000   0.0000000   0.0000000   0.0000000   0.0000000   0.0000000
 NQMom=    0.0000000   0.0000000   0.0000000   0.0000000   0.0000000   0.0000000   0.0000000   0.0000000   0.0000000   0.0000000
 NMagM=    2.7928460   2.7928460   0.0000000   2.7928460   2.7928460   0.0000000   2.7928460   2.7928460   0.0000000   2.7928460
 AtZNuc=   1.0000000   1.0000000   8.0000000   1.0000000   1.0000000   8.0000000   1.0000000   1.0000000   8.0000000   1.0000000

  Atom       151         152         153         154         155         156         157         158         159         160
 IAtWgt=           1          16           1           1          16           1           1          16           1           1
 AtmWgt=   1.0078250  15.9949146   1.0078250   1.0078250  15.9949146   1.0078250   1.0078250  15.9949146   1.0078250   1.0078250
 NucSpn=           1           0           1           1           0           1           1           0           1           1
 AtZEff=   0.0000000   0.0000000   0.0000000   0.0000000   0.0000000   0.0000000   0.0000000   0.0000000   0.0000000   0.0000000
 NQMom=    0.0000000   0.0000000   0.0000000   0.0000000   0.0000000   0.0000000   0.0000000   0.0000000   0.0000000   0.0000000
 NMagM=    2.7928460   0.0000000   2.7928460   2.7928460   0.0000000   2.7928460   2.7928460   0.0000000   2.7928460   2.7928460
 AtZNuc=   1.0000000   8.0000000   1.0000000   1.0000000   8.0000000   1.0000000   1.0000000   8.0000000   1.0000000   1.0000000

  Atom       161         162         163         164         165         166         167         168         169         170
 IAtWgt=          16           1           1          16           1           1          16           1           1          16
 AtmWgt=  15.9949146   1.0078250   1.0078250  15.9949146   1.0078250   1.0078250  15.9949146   1.0078250   1.0078250  15.9949146
 NucSpn=           0           1           1           0           1           1           0           1           1           0
 AtZEff=   0.0000000   0.0000000   0.0000000   0.0000000   0.0000000   0.0000000   0.0000000   0.0000000   0.0000000   0.0000000
 NQMom=    0.0000000   0.0000000   0.0000000   0.0000000   0.0000000   0.0000000   0.0000000   0.0000000   0.0000000   0.0000000
 NMagM=    0.0000000   2.7928460   2.7928460   0.0000000   2.7928460   2.7928460   0.0000000   2.7928460   2.7928460   0.0000000
 AtZNuc=   8.0000000   1.0000000   1.0000000   8.0000000   1.0000000   1.0000000   8.0000000   1.0000000   1.0000000   8.0000000

  Atom       171         172         173         174         175         176         177         178         179         180
 IAtWgt=           1           1          16           1           1          16           1           1          16           1
 AtmWgt=   1.0078250   1.0078250  15.9949146   1.0078250   1.0078250  15.9949146   1.0078250   1.0078250  15.9949146   1.0078250
 NucSpn=           1           1           0           1           1           0           1           1           0           1
 AtZEff=   0.0000000   0.0000000   0.0000000   0.0000000   0.0000000   0.0000000   0.0000000   0.0000000   0.0000000   0.0000000
 NQMom=    0.0000000   0.0000000   0.0000000   0.0000000   0.0000000   0.0000000   0.0000000   0.0000000   0.0000000   0.0000000
 NMagM=    2.7928460   2.7928460   0.0000000   2.7928460   2.7928460   0.0000000   2.7928460   2.7928460   0.0000000   2.7928460
 AtZNuc=   1.0000000   1.0000000   8.0000000   1.0000000   1.0000000   8.0000000   1.0000000   1.0000000   8.0000000   1.0000000

  Atom       181         182         183         184         185         186         187         188         189         190
 IAtWgt=           1          16           1           1          16           1           1          16           1           1
 AtmWgt=   1.0078250  15.9949146   1.0078250   1.0078250  15.9949146   1.0078250   1.0078250  15.9949146   1.0078250   1.0078250
 NucSpn=           1           0           1           1           0           1           1           0           1           1
 AtZEff=   0.0000000   0.0000000   0.0000000   0.0000000   0.0000000   0.0000000   0.0000000   0.0000000   0.0000000   0.0000000
 NQMom=    0.0000000   0.0000000   0.0000000   0.0000000   0.0000000   0.0000000   0.0000000   0.0000000   0.0000000   0.0000000
 NMagM=    2.7928460   0.0000000   2.7928460   2.7928460   0.0000000   2.7928460   2.7928460   0.0000000   2.7928460   2.7928460
 AtZNuc=   1.0000000   8.0000000   1.0000000   1.0000000   8.0000000   1.0000000   1.0000000   8.0000000   1.0000000   1.0000000

  Atom       191         192         193         194         195         196         197         198         199         200
 IAtWgt=          16           1           1          16           1           1          16           1           1          16
 AtmWgt=  15.9949146   1.0078250   1.0078250  15.9949146   1.0078250   1.0078250  15.9949146   1.0078250   1.0078250  15.9949146
 NucSpn=           0           1           1           0           1           1           0           1           1           0
 AtZEff=   0.0000000   0.0000000   0.0000000   0.0000000   0.0000000   0.0000000   0.0000000   0.0000000   0.0000000   0.0000000
 NQMom=    0.0000000   0.0000000   0.0000000   0.0000000   0.0000000   0.0000000   0.0000000   0.0000000   0.0000000   0.0000000
 NMagM=    0.0000000   2.7928460   2.7928460   0.0000000   2.7928460   2.7928460   0.0000000   2.7928460   2.7928460   0.0000000
 AtZNuc=   8.0000000   1.0000000   1.0000000   8.0000000   1.0000000   1.0000000   8.0000000   1.0000000   1.0000000   8.0000000

  Atom       201         202         203         204         205         206         207         208         209         210
 IAtWgt=           1           1          16           1           1          16           1           1          16           1
 AtmWgt=   1.0078250   1.0078250  15.9949146   1.0078250   1.0078250  15.9949146   1.0078250   1.0078250  15.9949146   1.0078250
 NucSpn=           1           1           0           1           1           0           1           1           0           1
 AtZEff=   0.0000000   0.0000000   0.0000000   0.0000000   0.0000000   0.0000000   0.0000000   0.0000000   0.0000000   0.0000000
 NQMom=    0.0000000   0.0000000   0.0000000   0.0000000   0.0000000   0.0000000   0.0000000   0.0000000   0.0000000   0.0000000
 NMagM=    2.7928460   2.7928460   0.0000000   2.7928460   2.7928460   0.0000000   2.7928460   2.7928460   0.0000000   2.7928460
 AtZNuc=   1.0000000   1.0000000   8.0000000   1.0000000   1.0000000   8.0000000   1.0000000   1.0000000   8.0000000   1.0000000

  Atom       211         212         213         214         215         216         217         218         219         220
 IAtWgt=           1          16           1           1          16           1           1          16           1           1
 AtmWgt=   1.0078250  15.9949146   1.0078250   1.0078250  15.9949146   1.0078250   1.0078250  15.9949146   1.0078250   1.0078250
 NucSpn=           1           0           1           1           0           1           1           0           1           1
 AtZEff=   0.0000000   0.0000000   0.0000000   0.0000000   0.0000000   0.0000000   0.0000000   0.0000000   0.0000000   0.0000000
 NQMom=    0.0000000   0.0000000   0.0000000   0.0000000   0.0000000   0.0000000   0.0000000   0.0000000   0.0000000   0.0000000
 NMagM=    2.7928460   0.0000000   2.7928460   2.7928460   0.0000000   2.7928460   2.7928460   0.0000000   2.7928460   2.7928460
 AtZNuc=   1.0000000   8.0000000   1.0000000   1.0000000   8.0000000   1.0000000   1.0000000   8.0000000   1.0000000   1.0000000

  Atom       221         222         223         224         225         226         227         228         229         230
 IAtWgt=          16           1           1          16           1           1          16           1           1          16
 AtmWgt=  15.9949146   1.0078250   1.0078250  15.9949146   1.0078250   1.0078250  15.9949146   1.0078250   1.0078250  15.9949146
 NucSpn=           0           1           1           0           1           1           0           1           1           0
 AtZEff=   0.0000000   0.0000000   0.0000000   0.0000000   0.0000000   0.0000000   0.0000000   0.0000000   0.0000000   0.0000000
 NQMom=    0.0000000   0.0000000   0.0000000   0.0000000   0.0000000   0.0000000   0.0000000   0.0000000   0.0000000   0.0000000
 NMagM=    0.0000000   2.7928460   2.7928460   0.0000000   2.7928460   2.7928460   0.0000000   2.7928460   2.7928460   0.0000000
 AtZNuc=   8.0000000   1.0000000   1.0000000   8.0000000   1.0000000   1.0000000   8.0000000   1.0000000   1.0000000   8.0000000

  Atom       231         232         233         234         235         236         237         238         239         240
 IAtWgt=           1           1          16           1           1          16           1           1          16           1
 AtmWgt=   1.0078250   1.0078250  15.9949146   1.0078250   1.0078250  15.9949146   1.0078250   1.0078250  15.9949146   1.0078250
 NucSpn=           1           1           0           1           1           0           1           1           0           1
 AtZEff=   0.0000000   0.0000000   0.0000000   0.0000000   0.0000000   0.0000000   0.0000000   0.0000000   0.0000000   0.0000000
 NQMom=    0.0000000   0.0000000   0.0000000   0.0000000   0.0000000   0.0000000   0.0000000   0.0000000   0.0000000   0.0000000
 NMagM=    2.7928460   2.7928460   0.0000000   2.7928460   2.7928460   0.0000000   2.7928460   2.7928460   0.0000000   2.7928460
 AtZNuc=   1.0000000   1.0000000   8.0000000   1.0000000   1.0000000   8.0000000   1.0000000   1.0000000   8.0000000   1.0000000

  Atom       241         242         243         244         245         246         247         248         249         250
 IAtWgt=           1          16           1           1          16           1           1          16           1           1
 AtmWgt=   1.0078250  15.9949146   1.0078250   1.0078250  15.9949146   1.0078250   1.0078250  15.9949146   1.0078250   1.0078250
 NucSpn=           1           0           1           1           0           1           1           0           1           1
 AtZEff=   0.0000000   0.0000000   0.0000000   0.0000000   0.0000000   0.0000000   0.0000000   0.0000000   0.0000000   0.0000000
 NQMom=    0.0000000   0.0000000   0.0000000   0.0000000   0.0000000   0.0000000   0.0000000   0.0000000   0.0000000   0.0000000
 NMagM=    2.7928460   0.0000000   2.7928460   2.7928460   0.0000000   2.7928460   2.7928460   0.0000000   2.7928460   2.7928460
 AtZNuc=   1.0000000   8.0000000   1.0000000   1.0000000   8.0000000   1.0000000   1.0000000   8.0000000   1.0000000   1.0000000

  Atom       251         252         253         254         255         256         257         258         259         260
 IAtWgt=          16           1           1          16           1           1          16           1           1          16
 AtmWgt=  15.9949146   1.0078250   1.0078250  15.9949146   1.0078250   1.0078250  15.9949146   1.0078250   1.0078250  15.9949146
 NucSpn=           0           1           1           0           1           1           0           1           1           0
 AtZEff=   0.0000000   0.0000000   0.0000000   0.0000000   0.0000000   0.0000000   0.0000000   0.0000000   0.0000000   0.0000000
 NQMom=    0.0000000   0.0000000   0.0000000   0.0000000   0.0000000   0.0000000   0.0000000   0.0000000   0.0000000   0.0000000
 NMagM=    0.0000000   2.7928460   2.7928460   0.0000000   2.7928460   2.7928460   0.0000000   2.7928460   2.7928460   0.0000000
 AtZNuc=   8.0000000   1.0000000   1.0000000   8.0000000   1.0000000   1.0000000   8.0000000   1.0000000   1.0000000   8.0000000

  Atom       261         262         263         264         265         266         267         268         269         270
 IAtWgt=           1           1          16           1           1          16           1           1          16           1
 AtmWgt=   1.0078250   1.0078250  15.9949146   1.0078250   1.0078250  15.9949146   1.0078250   1.0078250  15.9949146   1.0078250
 NucSpn=           1           1           0           1           1           0           1           1           0           1
 AtZEff=   0.0000000   0.0000000   0.0000000   0.0000000   0.0000000   0.0000000   0.0000000   0.0000000   0.0000000   0.0000000
 NQMom=    0.0000000   0.0000000   0.0000000   0.0000000   0.0000000   0.0000000   0.0000000   0.0000000   0.0000000   0.0000000
 NMagM=    2.7928460   2.7928460   0.0000000   2.7928460   2.7928460   0.0000000   2.7928460   2.7928460   0.0000000   2.7928460
 AtZNuc=   1.0000000   1.0000000   8.0000000   1.0000000   1.0000000   8.0000000   1.0000000   1.0000000   8.0000000   1.0000000

  Atom       271         272         273         274         275         276         277         278         279         280
 IAtWgt=           1          16           1           1          16           1           1          16           1           1
 AtmWgt=   1.0078250  15.9949146   1.0078250   1.0078250  15.9949146   1.0078250   1.0078250  15.9949146   1.0078250   1.0078250
 NucSpn=           1           0           1           1           0           1           1           0           1           1
 AtZEff=   0.0000000   0.0000000   0.0000000   0.0000000   0.0000000   0.0000000   0.0000000   0.0000000   0.0000000   0.0000000
 NQMom=    0.0000000   0.0000000   0.0000000   0.0000000   0.0000000   0.0000000   0.0000000   0.0000000   0.0000000   0.0000000
 NMagM=    2.7928460   0.0000000   2.7928460   2.7928460   0.0000000   2.7928460   2.7928460   0.0000000   2.7928460   2.7928460
 AtZNuc=   1.0000000   8.0000000   1.0000000   1.0000000   8.0000000   1.0000000   1.0000000   8.0000000   1.0000000   1.0000000

  Atom       281         282         283         284         285         286         287         288         289         290
 IAtWgt=          16           1           1          16           1           1          16           1           1          16
 AtmWgt=  15.9949146   1.0078250   1.0078250  15.9949146   1.0078250   1.0078250  15.9949146   1.0078250   1.0078250  15.9949146
 NucSpn=           0           1           1           0           1           1           0           1           1           0
 AtZEff=   0.0000000   0.0000000   0.0000000   0.0000000   0.0000000   0.0000000   0.0000000   0.0000000   0.0000000   0.0000000
 NQMom=    0.0000000   0.0000000   0.0000000   0.0000000   0.0000000   0.0000000   0.0000000   0.0000000   0.0000000   0.0000000
 NMagM=    0.0000000   2.7928460   2.7928460   0.0000000   2.7928460   2.7928460   0.0000000   2.7928460   2.7928460   0.0000000
 AtZNuc=   8.0000000   1.0000000   1.0000000   8.0000000   1.0000000   1.0000000   8.0000000   1.0000000   1.0000000   8.0000000

  Atom       291         292         293         294         295         296         297         298         299         300
 IAtWgt=           1           1          16           1           1          16           1           1          16           1
 AtmWgt=   1.0078250   1.0078250  15.9949146   1.0078250   1.0078250  15.9949146   1.0078250   1.0078250  15.9949146   1.0078250
 NucSpn=           1           1           0           1           1           0           1           1           0           1
 AtZEff=   0.0000000   0.0000000   0.0000000   0.0000000   0.0000000   0.0000000   0.0000000   0.0000000   0.0000000   0.0000000
 NQMom=    0.0000000   0.0000000   0.0000000   0.0000000   0.0000000   0.0000000   0.0000000   0.0000000   0.0000000   0.0000000
 NMagM=    2.7928460   2.7928460   0.0000000   2.7928460   2.7928460   0.0000000   2.7928460   2.7928460   0.0000000   2.7928460
 AtZNuc=   1.0000000   1.0000000   8.0000000   1.0000000   1.0000000   8.0000000   1.0000000   1.0000000   8.0000000   1.0000000

  Atom       301         302         303         304         305         306         307         308         309         310
 IAtWgt=           1          16           1           1          16           1           1          16           1           1
 AtmWgt=   1.0078250  15.9949146   1.0078250   1.0078250  15.9949146   1.0078250   1.0078250  15.9949146   1.0078250   1.0078250
 NucSpn=           1           0           1           1           0           1           1           0           1           1
 AtZEff=   0.0000000   0.0000000   0.0000000   0.0000000   0.0000000   0.0000000   0.0000000   0.0000000   0.0000000   0.0000000
 NQMom=    0.0000000   0.0000000   0.0000000   0.0000000   0.0000000   0.0000000   0.0000000   0.0000000   0.0000000   0.0000000
 NMagM=    2.7928460   0.0000000   2.7928460   2.7928460   0.0000000   2.7928460   2.7928460   0.0000000   2.7928460   2.7928460
 AtZNuc=   1.0000000   8.0000000   1.0000000   1.0000000   8.0000000   1.0000000   1.0000000   8.0000000   1.0000000   1.0000000

  Atom       311         312         313         314         315         316         317         318         319         320
 IAtWgt=          16           1           1          16           1           1          16           1           1          16
 AtmWgt=  15.9949146   1.0078250   1.0078250  15.9949146   1.0078250   1.0078250  15.9949146   1.0078250   1.0078250  15.9949146
 NucSpn=           0           1           1           0           1           1           0           1           1           0
 AtZEff=   0.0000000   0.0000000   0.0000000   0.0000000   0.0000000   0.0000000   0.0000000   0.0000000   0.0000000   0.0000000
 NQMom=    0.0000000   0.0000000   0.0000000   0.0000000   0.0000000   0.0000000   0.0000000   0.0000000   0.0000000   0.0000000
 NMagM=    0.0000000   2.7928460   2.7928460   0.0000000   2.7928460   2.7928460   0.0000000   2.7928460   2.7928460   0.0000000
 AtZNuc=   8.0000000   1.0000000   1.0000000   8.0000000   1.0000000   1.0000000   8.0000000   1.0000000   1.0000000   8.0000000

  Atom       321         322         323         324         325         326         327         328         329         330
 IAtWgt=           1           1          16           1           1          16           1           1          16           1
 AtmWgt=   1.0078250   1.0078250  15.9949146   1.0078250   1.0078250  15.9949146   1.0078250   1.0078250  15.9949146   1.0078250
 NucSpn=           1           1           0           1           1           0           1           1           0           1
 AtZEff=   0.0000000   0.0000000   0.0000000   0.0000000   0.0000000   0.0000000   0.0000000   0.0000000   0.0000000   0.0000000
 NQMom=    0.0000000   0.0000000   0.0000000   0.0000000   0.0000000   0.0000000   0.0000000   0.0000000   0.0000000   0.0000000
 NMagM=    2.7928460   2.7928460   0.0000000   2.7928460   2.7928460   0.0000000   2.7928460   2.7928460   0.0000000   2.7928460
 AtZNuc=   1.0000000   1.0000000   8.0000000   1.0000000   1.0000000   8.0000000   1.0000000   1.0000000   8.0000000   1.0000000

  Atom       331         332         333         334         335         336         337         338         339         340
 IAtWgt=           1          16           1           1          16           1           1          16           1           1
 AtmWgt=   1.0078250  15.9949146   1.0078250   1.0078250  15.9949146   1.0078250   1.0078250  15.9949146   1.0078250   1.0078250
 NucSpn=           1           0           1           1           0           1           1           0           1           1
 AtZEff=   0.0000000   0.0000000   0.0000000   0.0000000   0.0000000   0.0000000   0.0000000   0.0000000   0.0000000   0.0000000
 NQMom=    0.0000000   0.0000000   0.0000000   0.0000000   0.0000000   0.0000000   0.0000000   0.0000000   0.0000000   0.0000000
 NMagM=    2.7928460   0.0000000   2.7928460   2.7928460   0.0000000   2.7928460   2.7928460   0.0000000   2.7928460   2.7928460
 AtZNuc=   1.0000000   8.0000000   1.0000000   1.0000000   8.0000000   1.0000000   1.0000000   8.0000000   1.0000000   1.0000000

  Atom       341         342         343         344         345         346         347         348         349         350
 IAtWgt=          16           1           1          16           1           1          16           1           1          16
 AtmWgt=  15.9949146   1.0078250   1.0078250  15.9949146   1.0078250   1.0078250  15.9949146   1.0078250   1.0078250  15.9949146
 NucSpn=           0           1           1           0           1           1           0           1           1           0
 AtZEff=   0.0000000   0.0000000   0.0000000   0.0000000   0.0000000   0.0000000   0.0000000   0.0000000   0.0000000   0.0000000
 NQMom=    0.0000000   0.0000000   0.0000000   0.0000000   0.0000000   0.0000000   0.0000000   0.0000000   0.0000000   0.0000000
 NMagM=    0.0000000   2.7928460   2.7928460   0.0000000   2.7928460   2.7928460   0.0000000   2.7928460   2.7928460   0.0000000
 AtZNuc=   8.0000000   1.0000000   1.0000000   8.0000000   1.0000000   1.0000000   8.0000000   1.0000000   1.0000000   8.0000000

  Atom       351         352         353         354         355         356         357         358         359         360
 IAtWgt=           1           1          16           1           1          16           1           1          16           1
 AtmWgt=   1.0078250   1.0078250  15.9949146   1.0078250   1.0078250  15.9949146   1.0078250   1.0078250  15.9949146   1.0078250
 NucSpn=           1           1           0           1           1           0           1           1           0           1
 AtZEff=   0.0000000   0.0000000   0.0000000   0.0000000   0.0000000   0.0000000   0.0000000   0.0000000   0.0000000   0.0000000
 NQMom=    0.0000000   0.0000000   0.0000000   0.0000000   0.0000000   0.0000000   0.0000000   0.0000000   0.0000000   0.0000000
 NMagM=    2.7928460   2.7928460   0.0000000   2.7928460   2.7928460   0.0000000   2.7928460   2.7928460   0.0000000   2.7928460
 AtZNuc=   1.0000000   1.0000000   8.0000000   1.0000000   1.0000000   8.0000000   1.0000000   1.0000000   8.0000000   1.0000000

  Atom       361         362         363         364         365         366         367         368         369         370
 IAtWgt=           1          16           1           1          16           1           1          16           1           1
 AtmWgt=   1.0078250  15.9949146   1.0078250   1.0078250  15.9949146   1.0078250   1.0078250  15.9949146   1.0078250   1.0078250
 NucSpn=           1           0           1           1           0           1           1           0           1           1
 AtZEff=   0.0000000   0.0000000   0.0000000   0.0000000   0.0000000   0.0000000   0.0000000   0.0000000   0.0000000   0.0000000
 NQMom=    0.0000000   0.0000000   0.0000000   0.0000000   0.0000000   0.0000000   0.0000000   0.0000000   0.0000000   0.0000000
 NMagM=    2.7928460   0.0000000   2.7928460   2.7928460   0.0000000   2.7928460   2.7928460   0.0000000   2.7928460   2.7928460
 AtZNuc=   1.0000000   8.0000000   1.0000000   1.0000000   8.0000000   1.0000000   1.0000000   8.0000000   1.0000000   1.0000000

  Atom       371         372         373         374         375         376         377         378         379         380
 IAtWgt=          16           1           1          16           1           1          16           1           1          16
 AtmWgt=  15.9949146   1.0078250   1.0078250  15.9949146   1.0078250   1.0078250  15.9949146   1.0078250   1.0078250  15.9949146
 NucSpn=           0           1           1           0           1           1           0           1           1           0
 AtZEff=   0.0000000   0.0000000   0.0000000   0.0000000   0.0000000   0.0000000   0.0000000   0.0000000   0.0000000   0.0000000
 NQMom=    0.0000000   0.0000000   0.0000000   0.0000000   0.0000000   0.0000000   0.0000000   0.0000000   0.0000000   0.0000000
 NMagM=    0.0000000   2.7928460   2.7928460   0.0000000   2.7928460   2.7928460   0.0000000   2.7928460   2.7928460   0.0000000
 AtZNuc=   8.0000000   1.0000000   1.0000000   8.0000000   1.0000000   1.0000000   8.0000000   1.0000000   1.0000000   8.0000000

  Atom       381         382         383         384         385
 IAtWgt=           1           1          16           1           1
 AtmWgt=   1.0078250   1.0078250  15.9949146   1.0078250   1.0078250
 NucSpn=           1           1           0           1           1
 AtZEff=   0.0000000   0.0000000   0.0000000   0.0000000   0.0000000
 NQMom=    0.0000000   0.0000000   0.0000000   0.0000000   0.0000000
 NMagM=    2.7928460   2.7928460   0.0000000   2.7928460   2.7928460
 AtZNuc=   1.0000000   1.0000000   8.0000000   1.0000000   1.0000000
 Leave Link  101 at Tue May  8 01:43:33 2018, MaxMem= 14763950080 cpu:        87.0
 (Enter /cm/shared/gaussian/g09.e01/intel64-sandybridge/g09/l103.exe)

 GradGradGradGradGradGradGradGradGradGradGradGradGradGradGradGradGradGrad
 Berny optimization.
 Initialization pass.
 Trust Radius=3.00D-01 FncErr=1.00D-07 GrdErr=1.00D-07
 Number of steps in this run=      2 maximum allowed number of steps=      2.
 GradGradGradGradGradGradGradGradGradGradGradGradGradGradGradGradGradGrad

 Leave Link  103 at Tue May  8 01:43:33 2018, MaxMem= 14763950080 cpu:         3.6
 (Enter /cm/shared/gaussian/g09.e01/intel64-sandybridge/g09/l202.exe)
 Symmetry turned off by external request.
 Stoichiometry    BrH256O128(1-)
 Framework group  C1[X(BrH256O128)]
 Deg. of freedom  1149
 Full point group                 C1      NOp   1
                          Input orientation:                          
 ---------------------------------------------------------------------
 Center     Atomic      Atomic             Coordinates (Angstroms)
 Number     Number       Type             X           Y           Z
 ---------------------------------------------------------------------
      1         35           0       20.000000   20.000000   20.000000
      2          8           0       19.030000   18.460000   22.710000
      3          1           0       19.050000   18.840000   21.830000
      4          1           0       18.420000   17.730000   22.640000
      5          8           0       22.830000   21.500000   18.980000
      6          1           0       21.920000   21.250000   19.160000
      7          1           0       23.330000   21.130000   19.700000
      8          8           0       18.570000   22.430000   18.050000
      9          1           0       18.730000   21.640000   18.550000
     10          1           0       19.320000   22.500000   17.460000
     11          8           0       21.020000   20.500000   23.150000
     12          1           0       21.200000   20.560000   22.220000
     13          1           0       20.250000   19.930000   23.210000
     14          8           0       16.880000   21.110000   20.850000
     15          1           0       16.020000   20.700000   20.890000
     16          1           0       17.430000   20.480000   20.390000
     17          8           0       17.040000   18.320000   20.320000
     18          1           0       16.690000   17.440000   20.170000
     19          1           0       17.980000   18.230000   20.130000
     20          8           0       20.630000   18.650000   16.660000
     21          1           0       20.260000   19.190000   15.970000
     22          1           0       20.160000   18.910000   17.450000
     23          8           0       21.440000   16.690000   20.610000
     24          1           0       22.310000   16.430000   20.330000
     25          1           0       21.380000   17.620000   20.400000
     26          8           0       19.330000   22.810000   22.410000
     27          1           0       20.270000   22.880000   22.270000
     28          1           0       19.030000   22.220000   21.720000
     29          8           0       23.480000   19.230000   20.970000
     30          1           0       23.660000   18.600000   20.270000
     31          1           0       23.520000   18.700000   21.770000
     32          8           0       23.350000   19.520000   17.220000
     33          1           0       23.170000   20.220000   17.840000
     34          1           0       22.490000   19.120000   17.050000
     35          8           0       20.970000   16.510000   23.320000
     36          1           0       20.410000   17.180000   22.930000
     37          1           0       20.890000   15.760000   22.730000
     38          8           0       22.030000   23.320000   21.550000
     39          1           0       22.040000   23.900000   20.790000
     40          1           0       22.870000   22.870000   21.530000
     41          8           0       19.430000   15.010000   19.530000
     42          1           0       18.920000   15.320000   18.780000
     43          1           0       19.950000   15.770000   19.790000
     44          8           0       21.790000   24.220000   18.590000
     45          1           0       21.000000   23.820000   18.240000
     46          1           0       22.440000   23.520000   18.590000
     47          8           0       24.500000   21.730000   21.420000
     48          1           0       24.540000   21.840000   22.370000
     49          1           0       24.040000   20.900000   21.290000
     50          8           0       16.730000   24.140000   20.050000
     51          1           0       16.900000   24.080000   20.990000
     52          1           0       17.210000   23.410000   19.680000
     53          8           0       20.940000   22.400000   16.370000
     54          1           0       21.180000   23.150000   15.820000
     55          1           0       21.570000   21.720000   16.140000
     56          8           0       17.160000   18.110000   16.250000
     57          1           0       17.090000   18.210000   15.310000
     58          1           0       17.240000   19.010000   16.590000
     59          8           0       23.150000   18.160000   23.660000
     60          1           0       22.380000   17.640000   23.430000
     61          1           0       23.770000   17.520000   24.020000
     62          8           0       16.370000   21.520000   23.810000
     63          1           0       15.770000   21.830000   23.120000
     64          1           0       16.720000   20.700000   23.480000
     65          8           0       21.710000   22.340000   24.960000
     66          1           0       21.570000   21.680000   24.280000
     67          1           0       21.200000   23.090000   24.680000
     68          8           0       20.880000   15.980000   16.220000
     69          1           0       20.030000   15.750000   16.590000
     70          1           0       20.950000   16.930000   16.350000
     71          8           0       18.120000   18.920000   25.500000
     72          1           0       18.380000   19.070000   24.590000
     73          1           0       18.220000   17.970000   25.620000
     74          8           0       24.750000   17.810000   19.120000
     75          1           0       25.650000   18.150000   19.170000
     76          1           0       24.380000   18.200000   18.330000
     77          8           0       16.380000   22.120000   16.260000
     78          1           0       16.910000   22.840000   16.600000
     79          1           0       16.120000   21.620000   17.030000
     80          8           0       19.420000   20.430000   14.870000
     81          1           0       18.650000   20.550000   14.310000
     82          1           0       19.750000   21.310000   15.020000
     83          8           0       14.460000   19.890000   21.830000
     84          1           0       14.230000   19.320000   22.570000
     85          1           0       14.990000   19.330000   21.250000
     86          8           0       18.910000   23.610000   24.850000
     87          1           0       18.880000   22.970000   24.130000
     88          1           0       18.050000   24.030000   24.840000
     89          8           0       16.880000   17.010000   22.940000
     90          1           0       16.060000   17.360000   23.300000
     91          1           0       17.070000   16.240000   23.470000
     92          8           0       14.710000   20.260000   18.500000
     93          1           0       13.760000   20.370000   18.580000
     94          1           0       14.840000   19.310000   18.540000
     95          8           0       24.110000   20.940000   24.040000
     96          1           0       23.760000   20.050000   23.910000
     97          1           0       23.410000   21.410000   24.490000
     98          8           0       18.500000   25.740000   18.590000
     99          1           0       18.680000   26.330000   19.330000
    100          1           0       18.070000   24.980000   18.990000
    101          8           0       18.290000   15.510000   17.060000
    102          1           0       17.540000   14.920000   17.130000
    103          1           0       17.940000   16.280000   16.600000
    104          8           0       17.170000   24.650000   22.950000
    105          1           0       18.010000   24.200000   23.040000
    106          1           0       16.540000   23.950000   22.790000
    107          8           0       21.320000   13.810000   21.500000
    108          1           0       20.940000   14.350000   20.820000
    109          1           0       22.260000   14.010000   21.470000
    110          8           0       15.740000   15.880000   20.350000
    111          1           0       15.980000   15.950000   21.270000
    112          1           0       15.860000   14.950000   20.140000
    113          8           0       14.340000   23.030000   18.970000
    114          1           0       14.720000   22.190000   18.720000
    115          1           0       15.090000   23.570000   19.210000
    116          8           0       14.830000   22.910000   22.080000
    117          1           0       13.980000   22.810000   22.490000
    118          1           0       14.710000   22.580000   21.190000
    119          8           0       18.730000   16.190000   25.480000
    120          1           0       19.370000   16.110000   26.190000
    121          1           0       19.260000   16.290000   24.690000
    122          8           0       25.650000   23.840000   20.470000
    123          1           0       25.280000   24.430000   21.130000
    124          1           0       25.230000   23.000000   20.640000
    125          8           0       23.880000   15.300000   19.970000
    126          1           0       24.390000   15.330000   20.780000
    127          1           0       24.380000   15.840000   19.350000
    128          8           0       26.590000   20.120000   20.450000
    129          1           0       26.010000   20.810000   20.770000
    130          1           0       26.690000   20.310000   19.520000
    131          8           0       22.400000   20.540000   14.350000
    132          1           0       23.200000   21.030000   14.580000
    133          1           0       22.720000   19.660000   14.150000
    134          8           0       23.940000   22.380000   15.840000
    135          1           0       24.480000   22.690000   16.570000
    136          1           0       23.260000   23.050000   15.750000
    137          8           0       25.540000   19.690000   15.600000
    138          1           0       24.970000   19.300000   14.930000
    139          1           0       24.960000   19.860000   16.340000
    140          8           0       19.960000   17.020000   13.860000
    141          1           0       19.670000   17.880000   14.150000
    142          1           0       20.410000   16.650000   14.620000
    143          8           0       23.070000   14.480000   17.390000
    144          1           0       22.380000   15.010000   17.000000
    145          1           0       22.990000   14.640000   18.330000
    146          8           0       26.450000   17.670000   21.590000
    147          1           0       27.250000   17.630000   21.080000
    148          1           0       25.980000   18.440000   21.260000
    149          8           0       23.010000   26.560000   19.880000
    150          1           0       22.950000   26.330000   20.810000
    151          1           0       22.620000   25.820000   19.420000
    152          8           0       13.670000   17.470000   19.740000
    153          1           0       14.380000   16.870000   19.960000
    154          1           0       12.980000   16.910000   19.390000
    155          8           0       16.950000   21.050000   13.870000
    156          1           0       16.650000   21.470000   14.670000
    157          1           0       16.160000   20.910000   13.350000
    158          8           0       21.160000   25.210000   24.760000
    159          1           0       20.740000   25.840000   25.350000
    160          1           0       20.530000   25.090000   24.050000
    161          8           0       20.190000   25.940000   15.980000
    162          1           0       19.550000   26.590000   15.670000
    163          1           0       19.910000   25.740000   16.870000
    164          8           0       15.270000   15.570000   16.460000
    165          1           0       15.800000   16.360000   16.500000
    166          1           0       14.400000   15.870000   16.200000
    167          8           0       18.270000   27.030000   21.080000
    168          1           0       18.100000   26.180000   21.470000
    169          1           0       18.600000   27.570000   21.800000
    170          8           0       17.260000   24.900000   14.920000
    171          1           0       16.580000   24.370000   14.500000
    172          1           0       17.890000   24.260000   15.260000
    173          8           0       19.090000   22.960000   13.950000
    174          1           0       19.840000   22.700000   13.420000
    175          1           0       18.350000   22.470000   13.580000
    176          8           0       22.250000   24.390000   15.180000
    177          1           0       21.990000   24.280000   14.270000
    178          1           0       21.590000   24.980000   15.550000
    179          8           0       16.640000   21.980000   26.620000
    180          1           0       16.400000   21.640000   25.750000
    181          1           0       17.050000   21.230000   27.050000
    182          8           0       26.730000   20.910000   17.950000
    183          1           0       26.470000   21.820000   17.820000
    184          1           0       26.420000   20.470000   17.160000
    185          8           0       14.480000   18.110000   24.050000
    186          1           0       14.180000   17.200000   23.960000
    187          1           0       13.870000   18.500000   24.670000
    188          8           0       25.910000   23.600000   17.920000
    189          1           0       25.900000   24.360000   17.340000
    190          1           0       25.820000   23.960000   18.800000
    191          8           0       15.570000   23.930000   25.210000
    192          1           0       15.950000   23.390000   25.890000
    193          1           0       15.510000   23.360000   24.450000
    194          8           0       20.400000   13.500000   24.230000
    195          1           0       21.090000   13.860000   24.780000
    196          1           0       20.690000   13.700000   23.330000
    197          8           0       20.710000   23.320000   27.390000
    198          1           0       21.300000   23.990000   27.040000
    199          1           0       20.220000   23.000000   26.630000
    200          8           0       20.090000   12.270000   17.680000
    201          1           0       20.990000   12.120000   17.390000
    202          1           0       19.900000   13.170000   17.420000
    203          8           0       23.040000   26.550000   22.500000
    204          1           0       22.840000   27.280000   23.080000
    205          1           0       23.230000   25.810000   23.090000
    206          8           0       16.580000   26.970000   17.180000
    207          1           0       16.350000   26.600000   16.330000
[...]
   Z335      40.72360   0.00643   0.00000   0.00248   0.00231  40.72591
   X336      21.16493   0.00555   0.00000   0.00453   0.00449  21.16942
   Y336      38.41813   0.00134   0.00000   0.00043   0.00147  38.41960
   Z336      38.96615  -0.01612   0.00000  -0.01168  -0.01185  38.95430
   X337      21.93972   0.01213   0.00000   0.00637   0.00640  21.94612
   Y337      39.57087   0.01661   0.00000   0.01381   0.01501  39.58588
   Z337      41.46059   0.00475   0.00000   0.00134   0.00108  41.46167
   X338      52.34541   0.02593   0.00000   0.01482   0.01507  52.36049
   Y338      43.18024   0.01254   0.00000   0.00988   0.00943  43.18967
   Z338      45.12666  -0.01789   0.00000  -0.01715  -0.01767  45.10899
   X339      51.60842  -0.00988   0.00000  -0.00273  -0.00258  51.60584
   Y339      41.68736  -0.01531   0.00000  -0.00443  -0.00477  41.68258
   Z339      45.80696   0.01059   0.00000   0.00737   0.00698  45.81394
   X340      51.02261  -0.01542   0.00000  -0.01180  -0.01147  51.01114
   Y340      44.38967   0.00883   0.00000   0.00594   0.00558  44.39525
   Z340      45.14556   0.00294   0.00000   0.00388   0.00325  45.14881
   X341      27.47662   0.00425   0.00000   0.00368   0.00447  27.48109
   Y341      51.36276   0.00534   0.00000  -0.00038   0.00041  51.36317
   Z341      40.81808   0.01154   0.00000   0.00773   0.00645  40.82454
   X342      27.60890  -0.00047   0.00000  -0.00160  -0.00085  27.60805
   Y342      50.62576  -0.00382   0.00000  -0.00012   0.00052  50.62628
   Z342      39.17402  -0.01517   0.00000  -0.01080  -0.01201  39.16201
   X343      25.87035  -0.00209   0.00000  -0.00156  -0.00080  25.86955
   Y343      50.79584  -0.00200   0.00000  -0.00271  -0.00176  50.79408
   Z343      41.44169  -0.00023   0.00000   0.00022  -0.00102  41.44068
   X344      22.97907   0.01621   0.00000   0.00561   0.00587  22.98494
   Y344      43.19914  -0.02512   0.00000  -0.01791  -0.01669  43.18245
   Z344      42.44325   0.01837   0.00000   0.01268   0.01210  42.45535
   X345      22.24208  -0.01555   0.00000  -0.00959  -0.00925  22.23282
   Y345      44.33298   0.01972   0.00000   0.00774   0.00891  44.34188
   Z345      41.27162  -0.02195   0.00000  -0.01252  -0.01320  41.25842
   X346      22.01531  -0.00522   0.00000  -0.00457  -0.00430  22.01101
   Y346      43.40701   0.00175   0.00000   0.00026   0.00167  43.40868
   Z346      43.95503   0.00977   0.00000   0.01198   0.01138  43.96641
   X347      31.63402  -0.00128   0.00000  -0.00209  -0.00108  31.63294
   Y347      54.59419   0.01046   0.00000   0.00817   0.00835  54.60254
   Z347      36.92525  -0.00023   0.00000   0.00126  -0.00029  36.92496
   X348      31.61512  -0.00179   0.00000  -0.00398  -0.00304  31.61208
   Y348      53.55484  -0.00384   0.00000  -0.00192  -0.00187  53.55297
   Z348      35.43236  -0.00238   0.00000   0.00071  -0.00075  35.43162
   X349      32.10645  -0.00054   0.00000  -0.00296  -0.00203  32.10442
   Y349      53.46035  -0.00602   0.00000  -0.00579  -0.00552  53.45483
   Z349      38.26695  -0.00031   0.00000  -0.00248  -0.00393  38.26303
   X350      21.25942  -0.01183   0.00000  -0.00458  -0.00416  21.25526
   Y350      45.42902   0.01321   0.00000   0.00564   0.00660  45.43561
   Z350      38.09688   0.01009   0.00000   0.01405   0.01328  38.11016
   X351      23.03576   0.01644   0.00000   0.01211   0.01254  23.04830
   Y351      45.75027  -0.00012   0.00000  -0.00141  -0.00058  45.74969
   Z351      38.04019  -0.00903   0.00000  -0.01382  -0.01462  38.02556
   X352      21.10824   0.00220   0.00000   0.00276   0.00306  21.11130
   Y352      43.67157  -0.01358   0.00000  -0.00786  -0.00693  43.66464
   Z352      37.73783  -0.00547   0.00000  -0.00553  -0.00615  37.73168
   X353      51.85409  -0.00212   0.00000   0.00193   0.00125  51.85534
   Y353      28.62935  -0.00878   0.00000  -0.00757  -0.00854  28.62081
   Z353      38.70159   0.00807   0.00000  -0.00073   0.00001  38.70160
   X354      52.96902   0.00643   0.00000   0.00581   0.00523  52.97425
   Y354      30.04665   0.00440   0.00000   0.00122   0.00018  30.04682
   Z354      38.77718  -0.00340   0.00000  -0.00561  -0.00499  38.77219
   X355      51.62732  -0.00490   0.00000  -0.00681  -0.00750  51.61981
   Y355      28.34589   0.00045   0.00000   0.00272   0.00160  28.34749
   Z355      36.92525  -0.01595   0.00000  -0.01492  -0.01415  36.91110
   X356      41.15824  -0.00589   0.00000  -0.00081   0.00017  41.15841
   Y356      53.97058  -0.01581   0.00000  -0.01261  -0.01338  53.95720
   Z356      33.03241  -0.00342   0.00000  -0.00436  -0.00584  33.02658
   X357      42.08420   0.00753   0.00000   0.00347   0.00454  42.08874
   Y357      55.33118   0.01140   0.00000   0.00808   0.00719  55.33837
   Z357      32.31432  -0.00246   0.00000   0.00144  -0.00015  32.31416
   X358      41.74405  -0.00236   0.00000  -0.00686  -0.00589  41.73816
   Y358      53.87609   0.00421   0.00000   0.00647   0.00581  53.88190
   Z358      34.75206   0.00350   0.00000   0.00330   0.00183  34.75390
   X359      35.71582   0.00950   0.00000   0.00909   0.00977  35.72559
   Y359      49.94546   0.00878   0.00000   0.00522   0.00621  49.95168
   Z359      49.30295  -0.01271   0.00000  -0.00459  -0.00573  49.29723
   X360      34.84655  -0.00107   0.00000  -0.00075   0.00004  34.84659
   Y360      51.49504   0.00157   0.00000   0.00036   0.00144  51.49648
   Z360      49.69980   0.00337   0.00000   0.00496   0.00369  49.70348
   X361      35.33788  -0.00523   0.00000  -0.00503  -0.00442  35.33346
   Y361      48.84942  -0.01058   0.00000  -0.00912  -0.00798  48.84144
   Z361      50.68245   0.00943   0.00000   0.00313   0.00208  50.68454
   X362      45.08887  -0.00092   0.00000   0.00084   0.00048  45.08934
   Y362      33.93948  -0.00765   0.00000  -0.00332  -0.00266  33.93682
   Z362      52.51549  -0.01395   0.00000  -0.00977  -0.00950  52.50599
   X363      45.27784   0.00062   0.00000  -0.00054  -0.00080  45.27704
   Y363      35.60244   0.01495   0.00000   0.01008   0.01079  35.61323
   Z363      53.17689   0.00606   0.00000   0.00306   0.00318  53.18007
   X364      45.06997  -0.00015   0.00000  -0.00003  -0.00046  45.06951
   Y364      32.86234  -0.00366   0.00000  -0.00276  -0.00197  32.86037
   Z364      53.97058   0.00520   0.00000   0.00133   0.00170  53.97228
   X365      25.47351   0.00714   0.00000   0.00314   0.00227  25.47578
   Y365      25.45461  -0.01241   0.00000  -0.00952  -0.00942  25.44519
   Z365      31.42615   0.00093   0.00000   0.00119   0.00216  31.42830
   X366      26.77742   0.00676   0.00000   0.00903   0.00824  26.78566
   Y366      26.70183  -0.00364   0.00000  -0.00920  -0.00920  26.69263
   Z366      31.21828   0.00047   0.00000   0.00070   0.00156  31.21984
   X367      23.96173  -0.01255   0.00000  -0.00740  -0.00821  23.95352
   Y367      26.39947   0.00789   0.00000   0.00461   0.00483  26.40430
   Z367      31.63402   0.00216   0.00000   0.00126   0.00214  31.63616
   X368      50.75804   0.00147   0.00000  -0.00167  -0.00135  50.75669
   Y368      43.57708  -0.00421   0.00000   0.00275   0.00072  43.57780
   Z368      25.68138  -0.01528   0.00000  -0.00999  -0.01054  25.67084
   X369      49.18957  -0.00817   0.00000  -0.00475  -0.00444  49.18513
   Y369      43.44480  -0.00156   0.00000  -0.00149  -0.00335  43.44146
   Z369      26.56955   0.00868   0.00000   0.00822   0.00768  26.57723
   X370      51.81629   0.00461   0.00000   0.00189   0.00227  51.81856
   Y370      44.54084   0.00425   0.00000   0.00209   0.00009  44.54093
   Z370      26.77742   0.00879   0.00000   0.00710   0.00646  26.78388
   X371      40.85588   0.01416   0.00000   0.00753   0.00653  40.86241
   Y371      23.31922  -0.00565   0.00000  -0.00192  -0.00308  23.31614
   Z371      28.34589   0.01720   0.00000   0.01206   0.01324  28.35913
   X372      41.15824  -0.00032   0.00000   0.00064  -0.00045  41.15778
   Y372      21.93972  -0.00245   0.00000   0.00050  -0.00078  21.93894
   Z372      27.21206  -0.00385   0.00000  -0.00259  -0.00129  27.21077
   X373      39.43858  -0.01430   0.00000  -0.00597  -0.00691  39.43167
   Y373      24.18849   0.01001   0.00000   0.00812   0.00699  24.19548
   Z373      27.64669  -0.01044   0.00000  -0.00822  -0.00711  27.63958
   X374      49.77539   0.00818   0.00000   0.00593   0.00618  49.78156
   Y374      43.25583   0.00619   0.00000   0.00536   0.00556  43.26139
   Z374      50.70135   0.00512   0.00000   0.00655   0.00602  50.70737
   X375      48.11243  -0.00746   0.00000  -0.00710  -0.00684  48.10559
   Y375      43.55819  -0.00052   0.00000  -0.00142  -0.00106  43.55713
   Z375      51.34386  -0.00336   0.00000  -0.00683  -0.00739  51.33647
   X376      49.54862   0.00591   0.00000   0.01163   0.01179  49.56041
   Y376      41.93302  -0.00408   0.00000  -0.00195  -0.00184  41.93118
   Z376      49.47303  -0.00137   0.00000   0.00239   0.00197  49.47500
   X377      54.55639   0.01106   0.00000   0.00699   0.00731  54.56370
   Y377      43.82275  -0.00415   0.00000   0.00282   0.00125  43.82400
   Z377      33.84500  -0.00830   0.00000  -0.00852  -0.00909  33.83590
   X378      55.31228  -0.00249   0.00000  -0.00367  -0.00335  55.30894
   Y378      43.99282  -0.00160   0.00000  -0.00280  -0.00427  43.98855
   Z378      35.48906   0.00015   0.00000  -0.00127  -0.00186  35.48720
   X379      52.96902  -0.00914   0.00000  -0.00529  -0.00492  52.96410
   Y379      44.67313   0.00569   0.00000   0.00439   0.00294  44.67606
   Z379      33.99617   0.00558   0.00000   0.00714   0.00649  34.00266
   X380      35.79141  -0.01394   0.00000  -0.01214  -0.01323  35.77818
   Y380      22.56333  -0.01229   0.00000  -0.00995  -0.00903  22.55430
   Z380      48.50927   0.01559   0.00000   0.01026   0.01150  48.52077
   X381      34.69537  -0.00105   0.00000  -0.00177  -0.00292  34.69245
   Y381      21.59957  -0.00184   0.00000  -0.00452  -0.00362  21.59595
   Z381      47.43213  -0.00243   0.00000  -0.00428  -0.00296  47.42916
   X382      36.66069   0.00748   0.00000   0.00445   0.00343  36.66412
   Y382      23.67827   0.00687   0.00000  -0.00046   0.00030  23.67857
   Z382      47.37543  -0.00793   0.00000  -0.00096   0.00019  47.37562
   X383      40.36455   0.02034   0.00000   0.01214   0.01281  40.37736
   Y383      48.94391  -0.00987   0.00000  -0.01134  -0.01285  48.93106
   Z383      24.01842   0.00126   0.00000  -0.00214  -0.00318  24.01524
   X384      40.27006  -0.00238   0.00000  -0.00085  -0.00008  40.26998
   Y384      50.43679   0.00345   0.00000   0.00060  -0.00098  50.43581
   Z384      22.99797  -0.00250   0.00000   0.00137   0.00020  22.99817
   X385      38.66380  -0.02058   0.00000  -0.01775  -0.01712  38.64668
   Y385      48.32030   0.00712   0.00000   0.01636   0.01498  48.33527
   Z385      24.09401  -0.00108   0.00000  -0.00009  -0.00108  24.09293
         Item               Value     Threshold  Converged?
 Maximum Force            0.035470     0.000450     NO 
 RMS     Force            0.011160     0.000300     NO 
 Maximum Displacement     0.033931     0.001800     NO 
 RMS     Displacement     0.008799     0.001200     NO 
 Predicted change in Energy=-7.816683D-02
 GradGradGradGradGradGradGradGradGradGradGradGradGradGradGradGradGradGrad

 Leave Link  103 at Tue May  8 04:33:05 2018, MaxMem= 14763950080 cpu:      2768.4
 (Enter /cm/shared/gaussian/g09.e01/intel64-sandybridge/g09/l9999.exe)
 1\1\GINC-POPLE01\Force\RPBE1PBE\CC-pVDZ\Br1H256O128(1-)\M.PELUSO\08-Ma
 y-2018\0\\#p PBE1PBE/cc-pvDZ force Counterpoise=2 noSymm\\forces on ch
 loride comput - NWATER: 128\\-1,1\Br,20.,20.,20.\O,19.03,18.46,22.71\H
 ,19.05,18.84,21.83\H,18.42,17.73,22.64\O,22.83,21.5,18.98\H,21.92,21.2
 5,19.16\H,23.33,21.13,19.7\O,18.57,22.43,18.05\H,18.73,21.64,18.55\H,1
 9.32,22.5,17.46\O,21.02,20.5,23.15\H,21.2,20.56,22.22\H,20.25,19.93,23
 .21\O,16.88,21.11,20.85\H,16.02,20.7,20.89\H,17.43,20.48,20.39\O,17.04
 ,18.32,20.32\H,16.69,17.44,20.17\H,17.98,18.23,20.13\O,20.63,18.65,16.
 66\H,20.26,19.19,15.97\H,20.16,18.91,17.45\O,21.44,16.69,20.61\H,22.31
 ,16.43,20.33\H,21.38,17.62,20.4\O,19.33,22.81,22.41\H,20.27,22.88,22.2
 7\H,19.03,22.22,21.72\O,23.48,19.23,20.97\H,23.66,18.6,20.27\H,23.52,1
 8.7,21.77\O,23.35,19.52,17.22\H,23.17,20.22,17.84\H,22.49,19.12,17.05\
 O,20.97,16.51,23.32\H,20.41,17.18,22.93\H,20.89,15.76,22.73\O,22.03,23
 .32,21.55\H,22.04,23.9,20.79\H,22.87,22.87,21.53\O,19.43,15.01,19.53\H
 ,18.92,15.32,18.78\H,19.95,15.77,19.79\O,21.79,24.22,18.59\H,21.,23.82
 ,18.24\H,22.44,23.52,18.59\O,24.5,21.73,21.42\H,24.54,21.84,22.37\H,24
 .04,20.9,21.29\O,16.73,24.14,20.05\H,16.9,24.08,20.99\H,17.21,23.41,19
 .68\O,20.94,22.4,16.37\H,21.18,23.15,15.82\H,21.57,21.72,16.14\O,17.16
 ,18.11,16.25\H,17.09,18.21,15.31\H,17.24,19.01,16.59\O,23.15,18.16,23.
 66\H,22.38,17.64,23.43\H,23.77,17.52,24.02\O,16.37,21.52,23.81\H,15.77
 ,21.83,23.12\H,16.72,20.7,23.48\O,21.71,22.34,24.96\H,21.57,21.68,24.2
 8\H,21.2,23.09,24.68\O,20.88,15.98,16.22\H,20.03,15.75,16.59\H,20.95,1
 6.93,16.35\O,18.12,18.92,25.5\H,18.38,19.07,24.59\H,18.22,17.97,25.62\
 O,24.75,17.81,19.12\H,25.65,18.15,19.17\H,24.38,18.2,18.33\O,16.38,22.
 12,16.26\H,16.91,22.84,16.6\H,16.12,21.62,17.03\O,19.42,20.43,14.87\H,
 18.65,20.55,14.31\H,19.75,21.31,15.02\O,14.46,19.89,21.83\H,14.23,19.3
 2,22.57\H,14.99,19.33,21.25\O,18.91,23.61,24.85\H,18.88,22.97,24.13\H,
 18.05,24.03,24.84\O,16.88,17.01,22.94\H,16.06,17.36,23.3\H,17.07,16.24
 ,23.47\O,14.71,20.26,18.5\H,13.76,20.37,18.58\H,14.84,19.31,18.54\O,24
 .11,20.94,24.04\H,23.76,20.05,23.91\H,23.41,21.41,24.49\O,18.5,25.74,1
 8.59\H,18.68,26.33,19.33\H,18.07,24.98,18.99\O,18.29,15.51,17.06\H,17.
 54,14.92,17.13\H,17.94,16.28,16.6\O,17.17,24.65,22.95\H,18.01,24.2,23.
 04\H,16.54,23.95,22.79\O,21.32,13.81,21.5\H,20.94,14.35,20.82\H,22.26,
 14.01,21.47\O,15.74,15.88,20.35\H,15.98,15.95,21.27\H,15.86,14.95,20.1
 4\O,14.34,23.03,18.97\H,14.72,22.19,18.72\H,15.09,23.57,19.21\O,14.83,
 22.91,22.08\H,13.98,22.81,22.49\H,14.71,22.58,21.19\O,18.73,16.19,25.4
 8\H,19.37,16.11,26.19\H,19.26,16.29,24.69\O,25.65,23.84,20.47\H,25.28,
 24.43,21.13\H,25.23,23.,20.64\O,23.88,15.3,19.97\H,24.39,15.33,20.78\H
 ,24.38,15.84,19.35\O,26.59,20.12,20.45\H,26.01,20.81,20.77\H,26.69,20.
 31,19.52\O,22.4,20.54,14.35\H,23.2,21.03,14.58\H,22.72,19.66,14.15\O,2
 3.94,22.38,15.84\H,24.48,22.69,16.57\H,23.26,23.05,15.75\O,25.54,19.69
 ,15.6\H,24.97,19.3,14.93\H,24.96,19.86,16.34\O,19.96,17.02,13.86\H,19.
 67,17.88,14.15\H,20.41,16.65,14.62\O,23.07,14.48,17.39\H,22.38,15.01,1
 7.\H,22.99,14.64,18.33\O,26.45,17.67,21.59\H,27.25,17.63,21.08\H,25.98
 ,18.44,21.26\O,23.01,26.56,19.88\H,22.95,26.33,20.81\H,22.62,25.82,19.
 42\O,13.67,17.47,19.74\H,14.38,16.87,19.96\H,12.98,16.91,19.39\O,16.95
 ,21.05,13.87\H,16.65,21.47,14.67\H,16.16,20.91,13.35\O,21.16,25.21,24.
 76\H,20.74,25.84,25.35\H,20.53,25.09,24.05\O,20.19,25.94,15.98\H,19.55
 ,26.59,15.67\H,19.91,25.74,16.87\O,15.27,15.57,16.46\H,15.8,16.36,16.5
 \H,14.4,15.87,16.2\O,18.27,27.03,21.08\H,18.1,26.18,21.47\H,18.6,27.57
 ,21.8\O,17.26,24.9,14.92\H,16.58,24.37,14.5\H,17.89,24.26,15.26\O,19.0
 9,22.96,13.95\H,19.84,22.7,13.42\H,18.35,22.47,13.58\O,22.25,24.39,15.
 18\H,21.99,24.28,14.27\H,21.59,24.98,15.55\O,16.64,21.98,26.62\H,16.4,
 21.64,25.75\H,17.05,21.23,27.05\O,26.73,20.91,17.95\H,26.47,21.82,17.8
 2\H,26.42,20.47,17.16\O,14.48,18.11,24.05\H,14.18,17.2,23.96\H,13.87,1
 8.5,24.67\O,25.91,23.6,17.92\H,25.9,24.36,17.34\H,25.82,23.96,18.8\O,1
 5.57,23.93,25.21\H,15.95,23.39,25.89\H,15.51,23.36,24.45\O,20.4,13.5,2
 4.23\H,21.09,13.86,24.78\H,20.69,13.7,23.33\O,20.71,23.32,27.39\H,21.3
 ,23.99,27.04\H,20.22,23.,26.63\O,20.09,12.27,17.68\H,20.99,12.12,17.39
 \H,19.9,13.17,17.42\O,23.04,26.55,22.5\H,22.84,27.28,23.08\H,23.23,25.
 81,23.09\O,16.58,26.97,17.18\H,16.35,26.6,16.33\H,17.23,26.37,17.53\O,
 15.7,18.15,26.87\H,14.94,17.57,26.81\H,15.96,18.31,25.96\O,26.55,20.71
 ,25.02\H,26.93,20.,24.5\H,25.62,20.72,24.77\O,17.02,13.78,22.79\H,17.7
 1,13.13,22.9\H,16.46,13.42,22.11\O,18.09,19.8,28.11\H,17.7,19.06,28.59
 \H,17.98,19.56,27.19\O,25.67,15.19,22.54\H,25.92,16.11,22.57\H,25.81,1
 4.94,21.62\O,16.89,13.33,18.29\H,17.02,12.48,18.72\H,16.03,13.62,18.57
 \O,23.93,18.32,13.66\H,24.76,18.39,13.19\H,23.34,17.87,13.05\O,27.35,1
 7.69,18.28\H,27.75,18.09,17.51\H,26.74,17.04,17.93\O,25.15,24.78,23.12
 \H,24.67,25.21,23.83\H,25.92,25.34,22.98\O,19.33,11.85,21.03\H,20.03,1
 2.26,21.54\H,19.33,12.32,20.2\O,23.51,23.3,27.05\H,23.51,23.11,27.99\H
 ,22.92,22.65,26.67\O,24.79,26.32,17.6\H,24.78,27.2,17.22\H,24.12,26.34
 ,18.28\O,26.26,14.79,17.81\H,25.71,15.36,17.28\H,25.92,13.91,17.63\O,1
 9.42,13.9,13.84\H,19.55,14.53,13.14\H,19.02,14.4,14.55\O,11.89,18.08,2
 2.69\H,12.81,17.86,22.49\H,11.72,18.86,22.17\O,16.51,14.74,25.41\H,16.
 76,14.31,24.6\H,17.3,15.21,25.68\O,23.66,25.35,25.36\H,23.9,24.64,25.9
 6\H,22.71,25.28,25.26\O,25.03,16.96,25.33\H,25.9,16.72,25.62\H,24.74,1
 7.64,25.94\O,23.1,15.1,25.86\H,23.65,15.87,25.74\H,23.69,14.44,26.24\O
 ,16.71,18.01,13.03\H,16.45,17.1,12.9\H,17.18,18.25,12.23\O,22.06,17.1,
 12.17\H,21.58,17.78,11.7\H,21.44,16.77,12.82\O,23.4,14.53,14.23\H,24.0
 2,13.81,14.15\H,22.92,14.35,15.04\O,25.97,16.51,15.82\H,26.34,15.73,15
 .4\H,25.92,17.16,15.13\O,14.35,26.17,18.59\H,13.54,25.96,18.13\H,15.03
 ,26.08,17.93\O,20.66,18.12,28.39\H,21.43,18.67,28.39\H,19.96,18.68,28.
 05\O,27.66,18.51,23.94\H,28.26,17.83,24.24\H,27.35,18.2,23.09\O,14.23,
 18.23,13.95\H,14.98,18.22,13.36\H,14.38,17.49,14.54\O,11.83,19.92,18.8
 3\H,11.47,20.05,17.96\H,11.9,18.97,18.93\O,21.56,28.93,20.37\H,21.91,2
 8.04,20.34\H,21.09,28.97,21.21\O,14.1,15.49,24.16\H,14.92,15.43,24.66\
 H,13.85,14.58,24.01\O,29.18,20.1,21.33\H,29.45,19.6,22.1\H,28.22,20.,2
 1.31\O,20.76,15.86,27.24\H,21.62,15.55,26.96\H,20.94,16.68,27.7\O,22.1
 5,20.28,11.17\H,21.32,20.7,10.96\H,22.43,20.71,11.98\O,28.01,24.91,20.
 33\H,28.74,24.32,20.54\H,27.23,24.39,20.51\O,14.96,23.74,14.01\H,14.3,
 23.31,14.55\H,14.49,24.04,13.23\O,21.92,21.23,28.64\H,21.7,21.37,29.56
 \H,21.53,21.98,28.19\O,15.36,12.83,20.82\H,14.95,12.43,20.06\H,14.89,1
 2.47,21.57\O,21.19,23.19,12.12\H,21.32,24.1,11.87\H,20.66,22.82,11.41\
 O,24.82,12.44,17.14\H,24.3,13.21,16.92\H,24.22,11.87,17.62\O,29.28,20.
 18,18.68\H,28.45,20.53,18.36\H,29.17,20.12,19.63\O,18.68,25.4,12.26\H,
 18.52,24.73,12.93\H,18.06,26.09,12.47\O,16.03,26.7,25.08\H,15.72,25.88
 ,24.7\H,16.98,26.64,25.06\O,10.99,20.33,21.55\H,11.2,20.33,20.62\H,11.
 61,20.94,21.94\O,27.7,22.85,23.88\H,27.31,22.06,24.24\H,27.,23.49,23.8
 9\O,14.54,27.18,21.6\H,14.61,26.79,20.73\H,13.69,26.88,21.93\O,12.16,2
 2.86,22.46\H,11.77,23.46,21.84\H,11.65,22.97,23.26\O,16.74,28.89,19.54
 \H,16.73,28.34,18.75\H,16.99,28.29,20.25\O,11.25,24.04,20.16\H,12.19,2
 4.21,20.13\H,11.17,23.11,19.97\O,27.44,15.15,20.48\H,28.03,15.9,20.52\
 H,27.32,15.,19.54\O,21.78,28.56,17.48\H,22.27,29.28,17.1\H,22.09,28.51
 ,18.39\O,18.9,26.43,26.09\H,18.44,27.25,26.3\H,18.7,25.85,26.82\O,23.8
 6,17.96,27.79\H,23.96,18.84,28.14\H,23.85,17.39,28.56\O,13.48,13.47,16
 .63\H,14.17,14.13,16.52\H,12.68,13.97,16.74\O,26.86,23.06,13.59\H,26.0
 3,22.99,14.06\H,27.42,23.57,14.17\O,21.62,12.34,15.\H,21.78,11.61,14.4
 \H,20.87,12.8,14.63\O,26.34,22.89,26.83\H,25.46,23.05,27.17\H,26.22,22
 .19,26.18\O,28.87,23.19,17.91\H,29.27,23.28,18.78\H,28.03,23.64,17.99\
 O,18.94,11.94,25.67\H,18.36,11.43,25.1\H,19.4,12.53,25.07\O,21.36,25.9
 ,12.71\H,21.31,26.69,12.17\H,20.46,25.57,12.75\\Version=ES64L-G09RevE.
 01\HF=-9773.4989278\RMSD=1.948e-09\RMSF=1.116e-02\Dipole=-12.3251789,-
 7.801884,-7.7650134\Quadrupole=-298.3981861,58.4269524,239.9712337,-22
 03.5884146,-2086.9897702,-2041.5055353\PG=C01 [X(Br1H256O128)]\\@


 TOWERING GENIUS DISDAINS A BEATEN PATH.  IT SEEKS 
 REGIONS HITHERTO UNEXPLORED.

                                -- ABRAHAM LINCOLN
 Job cpu time:       7 days  9 hours 49 minutes 43.3 seconds.
 File lengths (MBytes):  RWF=   7285 Int=      0 D2E=      0 Chk=   2411 Scr=      1
 Normal termination of Gaussian 09 at Tue May  8 04:33:29 2018.
