 Entering Gaussian System, Link 0=/cm/shared/gaussian/g09.e01/intel64-sandybridge/g09/g09
 Initial command:
 /cm/shared/gaussian/g09.e01/intel64-sandybridge/g09/l1.exe "/local/scratch/m.peluso/128_wat/370/Gau-46676.inp" -scrdir="/local/scratch/m.peluso/128_wat/370/"
 Entering Link 1 = /cm/shared/gaussian/g09.e01/intel64-sandybridge/g09/l1.exe PID=     46677.
  
 Copyright (c) 1988,1990,1992,1993,1995,1998,2003,2009,2015,
            Gaussian, Inc.  All Rights Reserved.
  
 This is part of the Gaussian(R) 09 program.  It is based on
 the Gaussian(R) 03 system (copyright 2003, Gaussian, Inc.),
 the Gaussian(R) 98 system (copyright 1998, Gaussian, Inc.),
 the Gaussian(R) 94 system (copyright 1995, Gaussian, Inc.),
 the Gaussian 92(TM) system (copyright 1992, Gaussian, Inc.),
 the Gaussian 90(TM) system (copyright 1990, Gaussian, Inc.),
 the Gaussian 88(TM) system (copyright 1988, Gaussian, Inc.),
 the Gaussian 86(TM) system (copyright 1986, Carnegie Mellon
 University), and the Gaussian 82(TM) system (copyright 1983,
 Carnegie Mellon University). Gaussian is a federally registered
 trademark of Gaussian, Inc.
  
 This software contains proprietary and confidential information,
 including trade secrets, belonging to Gaussian, Inc.
  
 This software is provided under written license and may be
 used, copied, transmitted, or stored only in accord with that
 written license.
  
 The following legend is applicable only to US Government
 contracts under FAR:
  
                    RESTRICTED RIGHTS LEGEND
  
 Use, reproduction and disclosure by the US Government is
 subject to restrictions as set forth in subparagraphs (a)
 and (c) of the Commercial Computer Software - Restricted
 Rights clause in FAR 52.227-19.
  
 Gaussian, Inc.
 340 Quinnipiac St., Bldg. 40, Wallingford CT 06492
  
  
 ---------------------------------------------------------------
 Warning -- This program may not be used in any manner that
 competes with the business of Gaussian, Inc. or will provide
 assistance to any competitor of Gaussian, Inc.  The licensee
 of this program is prohibited from giving any competitor of
 Gaussian, Inc. access to this program.  By using this program,
 the user acknowledges that Gaussian, Inc. is engaged in the
 business of creating and licensing software in the field of
 computational chemistry and represents and warrants to the
 licensee that it is not a competitor of Gaussian, Inc. and that
 it will not use this program in any manner prohibited above.
 ---------------------------------------------------------------
  

 Cite this work as:
 Gaussian 09, Revision E.01,
 M. J. Frisch, G. W. Trucks, H. B. Schlegel, G. E. Scuseria, 
 M. A. Robb, J. R. Cheeseman, G. Scalmani, V. Barone, B. Mennucci, 
 G. A. Petersson, H. Nakatsuji, M. Caricato, X. Li, H. P. Hratchian, 
 A. F. Izmaylov, J. Bloino, G. Zheng, J. L. Sonnenberg, M. Hada, 
 M. Ehara, K. Toyota, R. Fukuda, J. Hasegawa, M. Ishida, T. Nakajima, 
 Y. Honda, O. Kitao, H. Nakai, T. Vreven, J. A. Montgomery, Jr., 
 J. E. Peralta, F. Ogliaro, M. Bearpark, J. J. Heyd, E. Brothers, 
 K. N. Kudin, V. N. Staroverov, T. Keith, R. Kobayashi, J. Normand, 
 K. Raghavachari, A. Rendell, J. C. Burant, S. S. Iyengar, J. Tomasi, 
 M. Cossi, N. Rega, J. M. Millam, M. Klene, J. E. Knox, J. B. Cross, 
 V. Bakken, C. Adamo, J. Jaramillo, R. Gomperts, R. E. Stratmann, 
 O. Yazyev, A. J. Austin, R. Cammi, C. Pomelli, J. W. Ochterski, 
 R. L. Martin, K. Morokuma, V. G. Zakrzewski, G. A. Voth, 
 P. Salvador, J. J. Dannenberg, S. Dapprich, A. D. Daniels, 
 O. Farkas, J. B. Foresman, J. V. Ortiz, J. Cioslowski, 
 and D. J. Fox, Gaussian, Inc., Wallingford CT, 2013.
 
 ******************************************
 Gaussian 09:  ES64L-G09RevE.01 30-Nov-2015
                 8-May-2018 
 ******************************************
 %Mem=110GB
 %NProcShared=64
 Will use up to   64 processors via shared memory.
 %chk=snap9.chk
 ----------------------------------------------
 #p PBE1PBE/cc-pvDZ force Counterpoise=2 noSymm
 ----------------------------------------------
 1/10=7,30=1,38=1,62=2/1,3;
 2/12=2,15=1,17=6,18=5,40=1/2;
 1/10=7,30=1,38=1,53=2,62=2,63=101/22;
 3/5=16,11=2,16=1,25=1,30=1,71=1,74=-13/1,2,3;
 4//1;
 5/5=2,38=5/2;
 6/7=2,8=2,9=2,10=2,28=1/1;
 7/7=1,29=1,30=1,33=-1/1,2,3,16;
 1/10=7,30=1,53=2,62=2,63=101/22;
 3/5=7,6=11,11=2,16=1,25=1,30=1,71=1,74=-13,82=7/1,2,3;
 4//1;
 5/5=2,38=5/2;
 6/7=2,8=2,9=2,10=2,28=1/1;
 7/7=1,29=1,30=1,33=-1/1,2,3,16;
 1/10=7,30=1,53=2,62=2,63=101/22(-5);
 7/9=1,29=1,44=-1/16;
 1/10=7,30=1,62=2/3;
 99//99;
 Leave Link    1 at Tue May  8 17:00:47 2018, MaxMem= 14763950080 cpu:       172.5
 (Enter /cm/shared/gaussian/g09.e01/intel64-sandybridge/g09/l101.exe)
 ---------------------------------------
 forces on chloride comput - NWATER: 128
 ---------------------------------------
 Symbolic Z-matrix:
 Charge = -1 Multiplicity = 1 in supermolecule
 Charge = -1 Multiplicity = 1 in fragment      1.
 Charge =  0 Multiplicity = 1 in fragment      2.
 Br(Fragment=1)        20.       20.       20. 
 O(Fragment=2)         21.01     22.9      20.33 
 H(Fragment=2)         21.41     23.02     19.47 
 H(Fragment=2)         20.65     22.02     20.31 
 O(Fragment=2)         22.89     19.92     18.95 
 H(Fragment=2)         23.31     20.71     19.3 
 H(Fragment=2)         22.08     19.85     19.45 
 O(Fragment=2)         18.16     22.54     20.43 
 H(Fragment=2)         18.77     22.95     21.06 
 H(Fragment=2)         18.52     21.67     20.28 
 O(Fragment=2)         20.86     18.04     22.44 
 H(Fragment=2)         21.47     17.65     21.81 
 H(Fragment=2)         20.76     18.95     22.15 
 O(Fragment=2)         17.5      17.91     20.8 
 H(Fragment=2)         18.1      18.63     21.01 
 H(Fragment=2)         17.91     17.47     20.06 
 O(Fragment=2)         18.73     16.91     18.66 
 H(Fragment=2)         19.23     16.15     18.36 
 H(Fragment=2)         19.37     17.62     18.66 
 O(Fragment=2)         18.51     19.72     16.63 
 H(Fragment=2)         17.64     19.62     16.24 
 H(Fragment=2)         18.34     19.99     17.53 
 O(Fragment=2)         21.27     22.37     17.36 
 H(Fragment=2)         20.69     22.63     16.64 
 H(Fragment=2)         21.03     21.46     17.54 
 O(Fragment=2)         21.41     18.92     16.98 
 H(Fragment=2)         22.03     19.35     17.57 
 H(Fragment=2)         20.77     19.59     16.78 
 O(Fragment=2)         16.91     20.65     22.23 
 H(Fragment=2)         17.49     21.3      21.85 
 H(Fragment=2)         17.38     20.31     22.99 
 O(Fragment=2)         18.71     18.95     23.64 
 H(Fragment=2)         19.26     18.43     23.05 
 H(Fragment=2)         18.79     18.51     24.48 
 O(Fragment=2)         15.94     20.24     19.56 
 H(Fragment=2)         16.54     20.89     19.92 
 H(Fragment=2)         16.41     19.41     19.66 
 O(Fragment=2)         21.56     16.29     18.55 
 H(Fragment=2)         22.08     16.51     19.32 
 H(Fragment=2)         21.29     17.14     18.19 
 O(Fragment=2)         19.21     22.41     23.54 
 H(Fragment=2)         20.05     22.22     23.1 
 H(Fragment=2)         19.19     21.81     24.28 
 O(Fragment=2)         19.07     24.36     18.27 
 H(Fragment=2)         19.59     23.86     17.64 
 H(Fragment=2)         18.74     23.7      18.88 
 O(Fragment=2)         16.38     21.96     16.89 
 H(Fragment=2)         15.77     22.66     17.13 
 H(Fragment=2)         16.54     21.48     17.7 
 O(Fragment=2)         19.46     15.27     22.16 
 H(Fragment=2)         20.19     14.72     22.44 
 H(Fragment=2)         19.82     16.16     22.17 
 O(Fragment=2)         19.31     25.       21.35 
 H(Fragment=2)         19.83     24.31     20.95 
 H(Fragment=2)         18.74     25.32     20.65 
 O(Fragment=2)         24.49     21.15     21.44 
 H(Fragment=2)         24.19     21.42     20.57 
 H(Fragment=2)         24.67     21.97     21.89 
 O(Fragment=2)         19.07     22.46     15.7 
 H(Fragment=2)         18.4      23.13     15.58 
 H(Fragment=2)         18.6      21.7      16.06 
 O(Fragment=2)         23.07     16.77     21.07 
 H(Fragment=2)         23.77     17.43     21.12 
 H(Fragment=2)         23.54     15.93     21.09 
 O(Fragment=2)         24.82     17.86     18.11 
 H(Fragment=2)         25.11     18.1      18.99 
 H(Fragment=2)         24.01     18.35     17.97 
 O(Fragment=2)         20.15     19.       14.45 
 H(Fragment=2)         19.75     18.81     15.3 
 H(Fragment=2)         19.61     18.53     13.82 
 O(Fragment=2)         24.11     22.46     19.05 
 H(Fragment=2)         23.5      23.19     18.91 
 H(Fragment=2)         24.96     22.88     19.17 
 O(Fragment=2)         25.06     18.56     21.3 
 H(Fragment=2)         24.8      19.47     21.44 
 H(Fragment=2)         25.76     18.41     21.93 
 O(Fragment=2)         22.16     16.76     24.82 
 H(Fragment=2)         21.83     15.86     24.83 
 H(Fragment=2)         21.63     17.21     24.16 
 O(Fragment=2)         16.92     14.85     19.79 
 H(Fragment=2)         17.36     15.44     19.17 
 H(Fragment=2)         17.35     15.01     20.63 
 O(Fragment=2)         22.32     21.17     24.79 
 H(Fragment=2)         23.16     21.07     25.23 
 H(Fragment=2)         21.68     20.9      25.45 
 O(Fragment=2)         14.24     17.22     20.95 
 H(Fragment=2)         13.62     17.9      20.68 
 H(Fragment=2)         15.09     17.66     20.92 
 O(Fragment=2)         14.62     22.28     22.89 
 H(Fragment=2)         15.21     21.62     22.52 
 H(Fragment=2)         13.79     21.81     23.01 
 O(Fragment=2)         15.68     19.48     24.96 
 H(Fragment=2)         16.1      20.16     25.49 
 H(Fragment=2)         16.36     19.22     24.33 
 O(Fragment=2)         19.84     14.57     16.92 
 H(Fragment=2)         20.31     14.31     16.13 
 H(Fragment=2)         20.52     14.79     17.56 
 O(Fragment=2)         13.64     20.88     18. 
 H(Fragment=2)         14.41     20.88     18.57 
 H(Fragment=2)         13.08     21.56     18.35 
 O(Fragment=2)         24.54     18.32     24.61 
 H(Fragment=2)         24.34     17.59     25.19 
 H(Fragment=2)         23.69     18.71     24.4 
 O(Fragment=2)         23.29     17.39     14.67 
 H(Fragment=2)         22.52     17.8      15.06 
 H(Fragment=2)         23.96     18.07     14.69 
 O(Fragment=2)         22.32     20.22     13.95 
 H(Fragment=2)         22.52     19.75     13.15 
 H(Fragment=2)         21.39     20.04     14.11 
 O(Fragment=2)         21.03     26.54     18.02 
 H(Fragment=2)         20.93     26.74     18.96 
 H(Fragment=2)         20.61     25.68     17.92 
 O(Fragment=2)         16.52     21.09     14.23 
 H(Fragment=2)         16.35     21.32     15.14 
 H(Fragment=2)         15.66     20.86     13.88 
 O(Fragment=2)         14.43     23.79     20.58 
 H(Fragment=2)         15.24     23.92     21.07 
 H(Fragment=2)         13.87     23.28     21.17 
 O(Fragment=2)         21.01     22.63     13.66 
 H(Fragment=2)         20.28     22.26     14.15 
 H(Fragment=2)         21.75     22.06     13.85 
 O(Fragment=2)         17.44     25.68     23.63 
 H(Fragment=2)         17.84     24.86     23.34 
 H(Fragment=2)         17.32     26.2      22.84 
 O(Fragment=2)         26.63     19.91     17.12 
 H(Fragment=2)         25.73     19.68     17.35 
 H(Fragment=2)         27.16     19.19     17.45 
 O(Fragment=2)         17.35     15.16     24.07 
 H(Fragment=2)         18.05     14.98     23.44 
 H(Fragment=2)         16.54     15.01     23.58 
 O(Fragment=2)         20.43     20.38     26.52 
 H(Fragment=2)         20.27     20.64     27.43 
 H(Fragment=2)         19.89     19.6      26.39 
 O(Fragment=2)         18.52     17.11     26.01 
 H(Fragment=2)         18.23     16.64     25.23 
 H(Fragment=2)         19.02     16.46     26.51 
 O(Fragment=2)         22.8      13.67     17.35 
 H(Fragment=2)         22.77     14.5      17.84 
 H(Fragment=2)         22.3      13.06     17.88 
 O(Fragment=2)         17.       14.65     16.19 
 H(Fragment=2)         16.85     15.34     15.53 
 H(Fragment=2)         17.92     14.75     16.44 
 O(Fragment=2)         20.05     27.49     21.93 
 H(Fragment=2)         19.99     27.39     22.88 
 H(Fragment=2)         19.72     26.66     21.58 
 O(Fragment=2)         24.38     14.56     20.6 
 H(Fragment=2)         24.59     13.85     20. 
 H(Fragment=2)         24.81     14.32     21.42 
 O(Fragment=2)         22.72     26.73     20.94 
 H(Fragment=2)         21.98     26.57     21.53 
 H(Fragment=2)         23.24     27.4      21.39 
 O(Fragment=2)         17.59     16.71     14. 
 H(Fragment=2)         17.18     16.02     13.48 
 H(Fragment=2)         16.86     17.25     14.31 
 O(Fragment=2)         14.23     14.91     18.92 
 H(Fragment=2)         14.07     15.54     19.62 
 H(Fragment=2)         15.17     14.97     18.76 
 O(Fragment=2)         24.87     21.25     25.78 
 H(Fragment=2)         25.09     21.26     24.85 
 H(Fragment=2)         25.61     21.67     26.21 
 O(Fragment=2)         21.25     14.06     23.8 
 H(Fragment=2)         21.99     13.48     24.01 
 H(Fragment=2)         20.47     13.52     23.97 
 O(Fragment=2)         17.81     27.45     18. 
 H(Fragment=2)         18.       26.53     17.83 
 H(Fragment=2)         16.94     27.44     18.41 
 O(Fragment=2)         26.25     16.51     22.91 
 H(Fragment=2)         26.47     16.02     23.71 
 H(Fragment=2)         25.8      17.3      23.23 
 O(Fragment=2)         25.42     14.56     17.62 
 H(Fragment=2)         25.09     15.45     17.74 
 H(Fragment=2)         24.63     14.01     17.65 
 O(Fragment=2)         23.82     25.95     18.07 
 H(Fragment=2)         23.48     25.77     17.2 
 H(Fragment=2)         23.09     26.33     18.55 
 O(Fragment=2)         15.39     17.99     14.85 
 H(Fragment=2)         14.78     18.63     14.47 
 H(Fragment=2)         14.84     17.44     15.4 
 O(Fragment=2)         21.88     25.66     24.94 
 H(Fragment=2)         21.35     24.89     25.18 
 H(Fragment=2)         22.74     25.49     25.32 
 O(Fragment=2)         21.52     23.7      27.08 
 H(Fragment=2)         21.34     22.99     26.47 
 H(Fragment=2)         22.31     23.41     27.55 
 O(Fragment=2)         26.74     19.65     24.04 
 H(Fragment=2)         26.62     20.46     23.56 
 H(Fragment=2)         25.86     19.35     24.25 
 O(Fragment=2)         24.41     21.65     13.41 
 H(Fragment=2)         23.59     21.28     13.73 
 H(Fragment=2)         24.63     22.34     14.03 
 O(Fragment=2)         21.99     17.33     27.36 
 H(Fragment=2)         22.27     17.33     26.45 
 H(Fragment=2)         22.43     18.08     27.76 
 O(Fragment=2)         13.71     20.51     15.05 
 H(Fragment=2)         13.85     20.39     15.99 
 H(Fragment=2)         12.78     20.37     14.92 
 O(Fragment=2)         26.72     21.96     22.93 
 H(Fragment=2)         26.87     21.63     22.05 
 H(Fragment=2)         27.42     22.6      23.07 
 O(Fragment=2)         16.71     21.52     26.4 
 H(Fragment=2)         17.42     21.42     27.04 
 H(Fragment=2)         16.17     22.23     26.75 
 O(Fragment=2)         17.51     24.49     14.7 
 H(Fragment=2)         17.68     24.32     13.78 
 H(Fragment=2)         17.8      25.4      14.84 
 O(Fragment=2)         14.91     15.29     22.92 
 H(Fragment=2)         14.16     15.48     22.36 
 H(Fragment=2)         14.89     15.98     23.59 
 O(Fragment=2)         26.94     16.54     20.15 
 H(Fragment=2)         27.02     15.64     19.82 
 H(Fragment=2)         26.47     16.45     20.98 
 O(Fragment=2)         17.91     21.94     12.17 
 H(Fragment=2)         18.85     21.78     12.07 
 H(Fragment=2)         17.69     21.55     13.01 
 O(Fragment=2)         14.55     24.04     16.62 
 H(Fragment=2)         13.67     24.15     16.25 
 H(Fragment=2)         14.9      24.93     16.69 
 O(Fragment=2)         15.42     26.27     19.38 
 H(Fragment=2)         15.24     26.53     18.48 
 H(Fragment=2)         14.81     25.55     19.55 
 O(Fragment=2)         12.25     18.52     17.29 
 H(Fragment=2)         12.85     17.81     17.05 
 H(Fragment=2)         12.74     19.07     17.89 
 O(Fragment=2)         14.72     25.09     23.81 
 H(Fragment=2)         14.69     24.16     23.59 
 H(Fragment=2)         15.66     25.29     23.88 
 O(Fragment=2)         27.59     20.81     20.77 
 H(Fragment=2)         27.81     19.88     20.72 
 H(Fragment=2)         28.41     21.26     20.54 
 O(Fragment=2)         26.75     23.61     19.07 
 H(Fragment=2)         27.6      23.44     19.46 
 H(Fragment=2)         26.89     23.47     18.13 
 O(Fragment=2)         25.14     23.52     14.92 
 H(Fragment=2)         25.68     23.15     15.62 
 H(Fragment=2)         24.81     24.34     15.28 
 O(Fragment=2)         20.45     20.46     11.48 
 H(Fragment=2)         20.94     20.09     12.21 
 H(Fragment=2)         20.03     19.7      11.07 
 O(Fragment=2)         12.07     22.89     19.59 
 H(Fragment=2)         12.89     23.38     19.59 
 H(Fragment=2)         11.79     22.88     20.5 
 O(Fragment=2)         24.03     14.89     14.26 
 H(Fragment=2)         23.75     15.78     14.48 
 H(Fragment=2)         23.24     14.48     13.89 
 O(Fragment=2)         12.06     20.7      22.49 
 H(Fragment=2)         12.29     20.22     21.69 
 H(Fragment=2)         11.14     20.93     22.37 
 O(Fragment=2)         27.25     22.55     16.54 
 H(Fragment=2)         27.05     21.66     16.84 
 H(Fragment=2)         28.21     22.56     16.45 
 O(Fragment=2)         20.73     11.93     18.42 
 H(Fragment=2)         20.69     11.01     18.14 
 H(Fragment=2)         20.09     12.38     17.88 
 O(Fragment=2)         13.47     17.05     24.68 
 H(Fragment=2)         13.87     16.88     25.53 
 H(Fragment=2)         13.78     17.92     24.43 
 O(Fragment=2)         16.65     27.1      21.57 
 H(Fragment=2)         16.13     26.89     20.79 
 H(Fragment=2)         16.86     28.03     21.48 
 O(Fragment=2)         15.23     23.61     13.52 
 H(Fragment=2)         16.02     23.72     14.05 
 H(Fragment=2)         14.65     23.08     14.07 
 O(Fragment=2)         26.26     26.14     20.01 
 H(Fragment=2)         26.56     25.26     19.76 
 H(Fragment=2)         25.33     26.15     19.79 
 O(Fragment=2)         16.66     18.84     11.92 
 H(Fragment=2)         17.16     18.3      12.54 
 H(Fragment=2)         15.84     19.03     12.38 
 O(Fragment=2)         15.62     12.44     17.75 
 H(Fragment=2)         14.96     12.95     18.21 
 H(Fragment=2)         16.37     13.03     17.68 
 O(Fragment=2)         23.5      25.76     15.32 
 H(Fragment=2)         24.32     26.16     15.02 
 H(Fragment=2)         23.02     25.58     14.51 
 O(Fragment=2)         21.98     25.29     13.28 
 H(Fragment=2)         21.75     24.36     13.22 
 H(Fragment=2)         21.14     25.74     13.33 
 O(Fragment=2)         23.59     19.66     27.87 
 H(Fragment=2)         23.9      20.34     27.28 
 H(Fragment=2)         23.07     20.12     28.52 
 O(Fragment=2)         26.31     19.78     14.14 
 H(Fragment=2)         26.68     20.03     14.99 
 H(Fragment=2)         25.66     20.46     13.96 
 O(Fragment=2)         11.79     18.68     20.33 
 H(Fragment=2)         11.26     18.       20.74 
 H(Fragment=2)         11.15     19.3      19.96 
 O(Fragment=2)         20.54     13.86     26.7 
 H(Fragment=2)         21.03     14.08     25.9 
 H(Fragment=2)         20.66     12.92     26.8 
 O(Fragment=2)         19.63     17.72     11.89 
 H(Fragment=2)         19.39     16.8      12.02 
 H(Fragment=2)         20.56     17.69     11.63 
 O(Fragment=2)         19.06     12.17     23.04 
 H(Fragment=2)         19.38     11.68     22.29 
 H(Fragment=2)         18.12     12.26     22.89 
 O(Fragment=2)         17.81     13.49     26.23 
 H(Fragment=2)         18.75     13.62     26.34 
 H(Fragment=2)         17.55     14.15     25.59 
 O(Fragment=2)         17.93     27.16     15.24 
 H(Fragment=2)         18.15     27.31     16.16 
 H(Fragment=2)         18.02     28.01     14.83 
 O(Fragment=2)         17.85     20.09     28.27 
 H(Fragment=2)         17.75     20.02     29.22 
 H(Fragment=2)         16.98     19.92     27.92 
 O(Fragment=2)         14.49     18.47     27.47 
 H(Fragment=2)         15.16     17.9      27.83 
 H(Fragment=2)         14.88     18.84     26.68 
 O(Fragment=2)         28.68     17.38     17.98 
 H(Fragment=2)         27.84     17.06     18.34 
 H(Fragment=2)         29.01     16.65     17.46 
 O(Fragment=2)         21.03     11.15     21.01 
 H(Fragment=2)         21.68     10.48     20.81 
 H(Fragment=2)         20.78     11.5      20.16 
 O(Fragment=2)         19.13     27.68     24.91 
 H(Fragment=2)         18.45     27.22     24.42 
 H(Fragment=2)         19.34     27.1      25.64 
 O(Fragment=2)         13.       22.69     25.64 
 H(Fragment=2)         13.71     22.05     25.53 
 H(Fragment=2)         13.35     23.33     26.26 
 O(Fragment=2)         13.43     16.34     15.77 
 H(Fragment=2)         13.02     15.63     16.25 
 H(Fragment=2)         12.84     16.51     15.04 
 O(Fragment=2)         24.58     17.58     11.92 
 H(Fragment=2)         25.48     17.53     12.24 
 H(Fragment=2)         24.06     17.75     12.7 
 O(Fragment=2)         20.81     28.79     16.06 
 H(Fragment=2)         20.78     27.92     16.45 
 H(Fragment=2)         21.51     29.24     16.52 
 O(Fragment=2)         16.17     11.82     22.3 
 H(Fragment=2)         15.76     12.48     21.76 
 H(Fragment=2)         16.11     11.01     21.79 
 O(Fragment=2)         24.22     11.81     19.64 
 H(Fragment=2)         24.08     10.89     19.86 
 H(Fragment=2)         23.57     12.01     18.97 
 O(Fragment=2)         25.04     13.53     23.23 
 H(Fragment=2)         24.41     12.93     23.63 
 H(Fragment=2)         25.56     13.86     23.96 
 O(Fragment=2)         22.61     12.18     14.96 
 H(Fragment=2)         22.57     12.69     15.77 
 H(Fragment=2)         21.7      12.17     14.65 
 O(Fragment=2)         26.79     16.76     15.29 
 H(Fragment=2)         27.6      17.25     15.46 
 H(Fragment=2)         27.       15.86     15.57 
 O(Fragment=2)         19.43     29.32     19.04 
 H(Fragment=2)         18.77     28.7      18.72 
 H(Fragment=2)         20.2      29.16     18.49 
 O(Fragment=2)         19.89     15.91     28.12 
 H(Fragment=2)         20.74     16.35     28.11 
 H(Fragment=2)         20.09     15.01     27.83 
 O(Fragment=2)         19.24     22.87     29.03 
 H(Fragment=2)         19.42     23.46     28.29 
 H(Fragment=2)         19.99     22.99     29.62 
 O(Fragment=2)         11.8      15.15     17.73 
 H(Fragment=2)         11.16     14.71     18.27 
 H(Fragment=2)         12.59     15.18     18.26 
 O(Fragment=2)         22.43     11.48     23.29 
 H(Fragment=2)         21.87     10.98     23.87 
 H(Fragment=2)         21.96     11.51     22.46 
 O(Fragment=2)         26.88     19.29     27.26 
 H(Fragment=2)         26.16     19.44     26.64 
 H(Fragment=2)         27.67     19.52     26.77 
 O(Fragment=2)         15.28     27.07     16.68 
 H(Fragment=2)         15.75     27.28     15.87 
 H(Fragment=2)         14.54     27.68     16.69 
 O(Fragment=2)         25.25     28.08     17.09 
 H(Fragment=2)         25.29     27.74     16.2 
 H(Fragment=2)         24.71     27.44     17.56 
 O(Fragment=2)         19.91     12.31     14.39 
 H(Fragment=2)         19.2      11.81     14.8 
 H(Fragment=2)         19.48     13.08     14.03 
 O(Fragment=2)         29.15     18.37     23.72 
 H(Fragment=2)         28.22     18.56     23.89 
 H(Fragment=2)         29.59     19.21     23.86 
 O(Fragment=2)         18.07     29.63     22.43 
 H(Fragment=2)         18.43     28.79     22.71 
 H(Fragment=2)         18.77     30.03     21.91 
 O(Fragment=2)         23.97     25.18     26.68 
 H(Fragment=2)         24.93     25.22     26.69 
 H(Fragment=2)         23.71     25.52     27.54 
 O(Fragment=2)         25.99     26.43     24. 
 H(Fragment=2)         25.14     26.81     23.8 
 H(Fragment=2)         25.87     26.04     24.87 
 O(Fragment=2)         16.58     17.34     28.99 
 H(Fragment=2)         16.61     17.8      29.83 
 H(Fragment=2)         17.47     17.44     28.64 
 
 NAtoms=    385 NQM=      385 NQMF=       0 NMMI=      0 NMMIF=      0
                NMic=       0 NMicF=      0.
                    Isotopes and Nuclear Properties:
 (Nuclear quadrupole moments (NQMom) in fm**2, nuclear magnetic moments (NMagM)
  in nuclear magnetons)

  Atom         1           2           3           4           5           6           7           8           9          10
 IAtWgt=          79          16           1           1          16           1           1          16           1           1
 AtmWgt=  78.9183361  15.9949146   1.0078250   1.0078250  15.9949146   1.0078250   1.0078250  15.9949146   1.0078250   1.0078250
 NucSpn=           3           0           1           1           0           1           1           0           1           1
 AtZEff=   0.0000000   0.0000000   0.0000000   0.0000000   0.0000000   0.0000000   0.0000000   0.0000000   0.0000000   0.0000000
 NQMom=   31.3000000   0.0000000   0.0000000   0.0000000   0.0000000   0.0000000   0.0000000   0.0000000   0.0000000   0.0000000
 NMagM=    2.1063990   0.0000000   2.7928460   2.7928460   0.0000000   2.7928460   2.7928460   0.0000000   2.7928460   2.7928460
 AtZNuc=  35.0000000   8.0000000   1.0000000   1.0000000   8.0000000   1.0000000   1.0000000   8.0000000   1.0000000   1.0000000

  Atom        11          12          13          14          15          16          17          18          19          20
 IAtWgt=          16           1           1          16           1           1          16           1           1          16
 AtmWgt=  15.9949146   1.0078250   1.0078250  15.9949146   1.0078250   1.0078250  15.9949146   1.0078250   1.0078250  15.9949146
 NucSpn=           0           1           1           0           1           1           0           1           1           0
 AtZEff=   0.0000000   0.0000000   0.0000000   0.0000000   0.0000000   0.0000000   0.0000000   0.0000000   0.0000000   0.0000000
 NQMom=    0.0000000   0.0000000   0.0000000   0.0000000   0.0000000   0.0000000   0.0000000   0.0000000   0.0000000   0.0000000
 NMagM=    0.0000000   2.7928460   2.7928460   0.0000000   2.7928460   2.7928460   0.0000000   2.7928460   2.7928460   0.0000000
 AtZNuc=   8.0000000   1.0000000   1.0000000   8.0000000   1.0000000   1.0000000   8.0000000   1.0000000   1.0000000   8.0000000

  Atom        21          22          23          24          25          26          27          28          29          30
 IAtWgt=           1           1          16           1           1          16           1           1          16           1
 AtmWgt=   1.0078250   1.0078250  15.9949146   1.0078250   1.0078250  15.9949146   1.0078250   1.0078250  15.9949146   1.0078250
 NucSpn=           1           1           0           1           1           0           1           1           0           1
 AtZEff=   0.0000000   0.0000000   0.0000000   0.0000000   0.0000000   0.0000000   0.0000000   0.0000000   0.0000000   0.0000000
 NQMom=    0.0000000   0.0000000   0.0000000   0.0000000   0.0000000   0.0000000   0.0000000   0.0000000   0.0000000   0.0000000
 NMagM=    2.7928460   2.7928460   0.0000000   2.7928460   2.7928460   0.0000000   2.7928460   2.7928460   0.0000000   2.7928460
 AtZNuc=   1.0000000   1.0000000   8.0000000   1.0000000   1.0000000   8.0000000   1.0000000   1.0000000   8.0000000   1.0000000

  Atom        31          32          33          34          35          36          37          38          39          40
 IAtWgt=           1          16           1           1          16           1           1          16           1           1
 AtmWgt=   1.0078250  15.9949146   1.0078250   1.0078250  15.9949146   1.0078250   1.0078250  15.9949146   1.0078250   1.0078250
 NucSpn=           1           0           1           1           0           1           1           0           1           1
 AtZEff=   0.0000000   0.0000000   0.0000000   0.0000000   0.0000000   0.0000000   0.0000000   0.0000000   0.0000000   0.0000000
 NQMom=    0.0000000   0.0000000   0.0000000   0.0000000   0.0000000   0.0000000   0.0000000   0.0000000   0.0000000   0.0000000
 NMagM=    2.7928460   0.0000000   2.7928460   2.7928460   0.0000000   2.7928460   2.7928460   0.0000000   2.7928460   2.7928460
 AtZNuc=   1.0000000   8.0000000   1.0000000   1.0000000   8.0000000   1.0000000   1.0000000   8.0000000   1.0000000   1.0000000

  Atom        41          42          43          44          45          46          47          48          49          50
 IAtWgt=          16           1           1          16           1           1          16           1           1          16
 AtmWgt=  15.9949146   1.0078250   1.0078250  15.9949146   1.0078250   1.0078250  15.9949146   1.0078250   1.0078250  15.9949146
 NucSpn=           0           1           1           0           1           1           0           1           1           0
 AtZEff=   0.0000000   0.0000000   0.0000000   0.0000000   0.0000000   0.0000000   0.0000000   0.0000000   0.0000000   0.0000000
 NQMom=    0.0000000   0.0000000   0.0000000   0.0000000   0.0000000   0.0000000   0.0000000   0.0000000   0.0000000   0.0000000
 NMagM=    0.0000000   2.7928460   2.7928460   0.0000000   2.7928460   2.7928460   0.0000000   2.7928460   2.7928460   0.0000000
 AtZNuc=   8.0000000   1.0000000   1.0000000   8.0000000   1.0000000   1.0000000   8.0000000   1.0000000   1.0000000   8.0000000

  Atom        51          52          53          54          55          56          57          58          59          60
 IAtWgt=           1           1          16           1           1          16           1           1          16           1
 AtmWgt=   1.0078250   1.0078250  15.9949146   1.0078250   1.0078250  15.9949146   1.0078250   1.0078250  15.9949146   1.0078250
 NucSpn=           1           1           0           1           1           0           1           1           0           1
 AtZEff=   0.0000000   0.0000000   0.0000000   0.0000000   0.0000000   0.0000000   0.0000000   0.0000000   0.0000000   0.0000000
 NQMom=    0.0000000   0.0000000   0.0000000   0.0000000   0.0000000   0.0000000   0.0000000   0.0000000   0.0000000   0.0000000
 NMagM=    2.7928460   2.7928460   0.0000000   2.7928460   2.7928460   0.0000000   2.7928460   2.7928460   0.0000000   2.7928460
 AtZNuc=   1.0000000   1.0000000   8.0000000   1.0000000   1.0000000   8.0000000   1.0000000   1.0000000   8.0000000   1.0000000

  Atom        61          62          63          64          65          66          67          68          69          70
 IAtWgt=           1          16           1           1          16           1           1          16           1           1
 AtmWgt=   1.0078250  15.9949146   1.0078250   1.0078250  15.9949146   1.0078250   1.0078250  15.9949146   1.0078250   1.0078250
 NucSpn=           1           0           1           1           0           1           1           0           1           1
 AtZEff=   0.0000000   0.0000000   0.0000000   0.0000000   0.0000000   0.0000000   0.0000000   0.0000000   0.0000000   0.0000000
 NQMom=    0.0000000   0.0000000   0.0000000   0.0000000   0.0000000   0.0000000   0.0000000   0.0000000   0.0000000   0.0000000
 NMagM=    2.7928460   0.0000000   2.7928460   2.7928460   0.0000000   2.7928460   2.7928460   0.0000000   2.7928460   2.7928460
 AtZNuc=   1.0000000   8.0000000   1.0000000   1.0000000   8.0000000   1.0000000   1.0000000   8.0000000   1.0000000   1.0000000

  Atom        71          72          73          74          75          76          77          78          79          80
 IAtWgt=          16           1           1          16           1           1          16           1           1          16
 AtmWgt=  15.9949146   1.0078250   1.0078250  15.9949146   1.0078250   1.0078250  15.9949146   1.0078250   1.0078250  15.9949146
 NucSpn=           0           1           1           0           1           1           0           1           1           0
 AtZEff=   0.0000000   0.0000000   0.0000000   0.0000000   0.0000000   0.0000000   0.0000000   0.0000000   0.0000000   0.0000000
 NQMom=    0.0000000   0.0000000   0.0000000   0.0000000   0.0000000   0.0000000   0.0000000   0.0000000   0.0000000   0.0000000
 NMagM=    0.0000000   2.7928460   2.7928460   0.0000000   2.7928460   2.7928460   0.0000000   2.7928460   2.7928460   0.0000000
 AtZNuc=   8.0000000   1.0000000   1.0000000   8.0000000   1.0000000   1.0000000   8.0000000   1.0000000   1.0000000   8.0000000

  Atom        81          82          83          84          85          86          87          88          89          90
 IAtWgt=           1           1          16           1           1          16           1           1          16           1
 AtmWgt=   1.0078250   1.0078250  15.9949146   1.0078250   1.0078250  15.9949146   1.0078250   1.0078250  15.9949146   1.0078250
 NucSpn=           1           1           0           1           1           0           1           1           0           1
 AtZEff=   0.0000000   0.0000000   0.0000000   0.0000000   0.0000000   0.0000000   0.0000000   0.0000000   0.0000000   0.0000000
 NQMom=    0.0000000   0.0000000   0.0000000   0.0000000   0.0000000   0.0000000   0.0000000   0.0000000   0.0000000   0.0000000
 NMagM=    2.7928460   2.7928460   0.0000000   2.7928460   2.7928460   0.0000000   2.7928460   2.7928460   0.0000000   2.7928460
 AtZNuc=   1.0000000   1.0000000   8.0000000   1.0000000   1.0000000   8.0000000   1.0000000   1.0000000   8.0000000   1.0000000

  Atom        91          92          93          94          95          96          97          98          99         100
 IAtWgt=           1          16           1           1          16           1           1          16           1           1
 AtmWgt=   1.0078250  15.9949146   1.0078250   1.0078250  15.9949146   1.0078250   1.0078250  15.9949146   1.0078250   1.0078250
 NucSpn=           1           0           1           1           0           1           1           0           1           1
 AtZEff=   0.0000000   0.0000000   0.0000000   0.0000000   0.0000000   0.0000000   0.0000000   0.0000000   0.0000000   0.0000000
 NQMom=    0.0000000   0.0000000   0.0000000   0.0000000   0.0000000   0.0000000   0.0000000   0.0000000   0.0000000   0.0000000
 NMagM=    2.7928460   0.0000000   2.7928460   2.7928460   0.0000000   2.7928460   2.7928460   0.0000000   2.7928460   2.7928460
 AtZNuc=   1.0000000   8.0000000   1.0000000   1.0000000   8.0000000   1.0000000   1.0000000   8.0000000   1.0000000   1.0000000

  Atom       101         102         103         104         105         106         107         108         109         110
 IAtWgt=          16           1           1          16           1           1          16           1           1          16
 AtmWgt=  15.9949146   1.0078250   1.0078250  15.9949146   1.0078250   1.0078250  15.9949146   1.0078250   1.0078250  15.9949146
 NucSpn=           0           1           1           0           1           1           0           1           1           0
 AtZEff=   0.0000000   0.0000000   0.0000000   0.0000000   0.0000000   0.0000000   0.0000000   0.0000000   0.0000000   0.0000000
 NQMom=    0.0000000   0.0000000   0.0000000   0.0000000   0.0000000   0.0000000   0.0000000   0.0000000   0.0000000   0.0000000
 NMagM=    0.0000000   2.7928460   2.7928460   0.0000000   2.7928460   2.7928460   0.0000000   2.7928460   2.7928460   0.0000000
 AtZNuc=   8.0000000   1.0000000   1.0000000   8.0000000   1.0000000   1.0000000   8.0000000   1.0000000   1.0000000   8.0000000

  Atom       111         112         113         114         115         116         117         118         119         120
 IAtWgt=           1           1          16           1           1          16           1           1          16           1
 AtmWgt=   1.0078250   1.0078250  15.9949146   1.0078250   1.0078250  15.9949146   1.0078250   1.0078250  15.9949146   1.0078250
 NucSpn=           1           1           0           1           1           0           1           1           0           1
 AtZEff=   0.0000000   0.0000000   0.0000000   0.0000000   0.0000000   0.0000000   0.0000000   0.0000000   0.0000000   0.0000000
 NQMom=    0.0000000   0.0000000   0.0000000   0.0000000   0.0000000   0.0000000   0.0000000   0.0000000   0.0000000   0.0000000
 NMagM=    2.7928460   2.7928460   0.0000000   2.7928460   2.7928460   0.0000000   2.7928460   2.7928460   0.0000000   2.7928460
 AtZNuc=   1.0000000   1.0000000   8.0000000   1.0000000   1.0000000   8.0000000   1.0000000   1.0000000   8.0000000   1.0000000

  Atom       121         122         123         124         125         126         127         128         129         130
 IAtWgt=           1          16           1           1          16           1           1          16           1           1
 AtmWgt=   1.0078250  15.9949146   1.0078250   1.0078250  15.9949146   1.0078250   1.0078250  15.9949146   1.0078250   1.0078250
 NucSpn=           1           0           1           1           0           1           1           0           1           1
 AtZEff=   0.0000000   0.0000000   0.0000000   0.0000000   0.0000000   0.0000000   0.0000000   0.0000000   0.0000000   0.0000000
 NQMom=    0.0000000   0.0000000   0.0000000   0.0000000   0.0000000   0.0000000   0.0000000   0.0000000   0.0000000   0.0000000
 NMagM=    2.7928460   0.0000000   2.7928460   2.7928460   0.0000000   2.7928460   2.7928460   0.0000000   2.7928460   2.7928460
 AtZNuc=   1.0000000   8.0000000   1.0000000   1.0000000   8.0000000   1.0000000   1.0000000   8.0000000   1.0000000   1.0000000

  Atom       131         132         133         134         135         136         137         138         139         140
 IAtWgt=          16           1           1          16           1           1          16           1           1          16
 AtmWgt=  15.9949146   1.0078250   1.0078250  15.9949146   1.0078250   1.0078250  15.9949146   1.0078250   1.0078250  15.9949146
 NucSpn=           0           1           1           0           1           1           0           1           1           0
 AtZEff=   0.0000000   0.0000000   0.0000000   0.0000000   0.0000000   0.0000000   0.0000000   0.0000000   0.0000000   0.0000000
 NQMom=    0.0000000   0.0000000   0.0000000   0.0000000   0.0000000   0.0000000   0.0000000   0.0000000   0.0000000   0.0000000
 NMagM=    0.0000000   2.7928460   2.7928460   0.0000000   2.7928460   2.7928460   0.0000000   2.7928460   2.7928460   0.0000000
 AtZNuc=   8.0000000   1.0000000   1.0000000   8.0000000   1.0000000   1.0000000   8.0000000   1.0000000   1.0000000   8.0000000

  Atom       141         142         143         144         145         146         147         148         149         150
 IAtWgt=           1           1          16           1           1          16           1           1          16           1
 AtmWgt=   1.0078250   1.0078250  15.9949146   1.0078250   1.0078250  15.9949146   1.0078250   1.0078250  15.9949146   1.0078250
 NucSpn=           1           1           0           1           1           0           1           1           0           1
 AtZEff=   0.0000000   0.0000000   0.0000000   0.0000000   0.0000000   0.0000000   0.0000000   0.0000000   0.0000000   0.0000000
 NQMom=    0.0000000   0.0000000   0.0000000   0.0000000   0.0000000   0.0000000   0.0000000   0.0000000   0.0000000   0.0000000
 NMagM=    2.7928460   2.7928460   0.0000000   2.7928460   2.7928460   0.0000000   2.7928460   2.7928460   0.0000000   2.7928460
 AtZNuc=   1.0000000   1.0000000   8.0000000   1.0000000   1.0000000   8.0000000   1.0000000   1.0000000   8.0000000   1.0000000

  Atom       151         152         153         154         155         156         157         158         159         160
 IAtWgt=           1          16           1           1          16           1           1          16           1           1
 AtmWgt=   1.0078250  15.9949146   1.0078250   1.0078250  15.9949146   1.0078250   1.0078250  15.9949146   1.0078250   1.0078250
 NucSpn=           1           0           1           1           0           1           1           0           1           1
 AtZEff=   0.0000000   0.0000000   0.0000000   0.0000000   0.0000000   0.0000000   0.0000000   0.0000000   0.0000000   0.0000000
 NQMom=    0.0000000   0.0000000   0.0000000   0.0000000   0.0000000   0.0000000   0.0000000   0.0000000   0.0000000   0.0000000
 NMagM=    2.7928460   0.0000000   2.7928460   2.7928460   0.0000000   2.7928460   2.7928460   0.0000000   2.7928460   2.7928460
 AtZNuc=   1.0000000   8.0000000   1.0000000   1.0000000   8.0000000   1.0000000   1.0000000   8.0000000   1.0000000   1.0000000

  Atom       161         162         163         164         165         166         167         168         169         170
 IAtWgt=          16           1           1          16           1           1          16           1           1          16
 AtmWgt=  15.9949146   1.0078250   1.0078250  15.9949146   1.0078250   1.0078250  15.9949146   1.0078250   1.0078250  15.9949146
 NucSpn=           0           1           1           0           1           1           0           1           1           0
 AtZEff=   0.0000000   0.0000000   0.0000000   0.0000000   0.0000000   0.0000000   0.0000000   0.0000000   0.0000000   0.0000000
 NQMom=    0.0000000   0.0000000   0.0000000   0.0000000   0.0000000   0.0000000   0.0000000   0.0000000   0.0000000   0.0000000
 NMagM=    0.0000000   2.7928460   2.7928460   0.0000000   2.7928460   2.7928460   0.0000000   2.7928460   2.7928460   0.0000000
 AtZNuc=   8.0000000   1.0000000   1.0000000   8.0000000   1.0000000   1.0000000   8.0000000   1.0000000   1.0000000   8.0000000

  Atom       171         172         173         174         175         176         177         178         179         180
 IAtWgt=           1           1          16           1           1          16           1           1          16           1
 AtmWgt=   1.0078250   1.0078250  15.9949146   1.0078250   1.0078250  15.9949146   1.0078250   1.0078250  15.9949146   1.0078250
 NucSpn=           1           1           0           1           1           0           1           1           0           1
 AtZEff=   0.0000000   0.0000000   0.0000000   0.0000000   0.0000000   0.0000000   0.0000000   0.0000000   0.0000000   0.0000000
 NQMom=    0.0000000   0.0000000   0.0000000   0.0000000   0.0000000   0.0000000   0.0000000   0.0000000   0.0000000   0.0000000
 NMagM=    2.7928460   2.7928460   0.0000000   2.7928460   2.7928460   0.0000000   2.7928460   2.7928460   0.0000000   2.7928460
 AtZNuc=   1.0000000   1.0000000   8.0000000   1.0000000   1.0000000   8.0000000   1.0000000   1.0000000   8.0000000   1.0000000

  Atom       181         182         183         184         185         186         187         188         189         190
 IAtWgt=           1          16           1           1          16           1           1          16           1           1
 AtmWgt=   1.0078250  15.9949146   1.0078250   1.0078250  15.9949146   1.0078250   1.0078250  15.9949146   1.0078250   1.0078250
 NucSpn=           1           0           1           1           0           1           1           0           1           1
 AtZEff=   0.0000000   0.0000000   0.0000000   0.0000000   0.0000000   0.0000000   0.0000000   0.0000000   0.0000000   0.0000000
 NQMom=    0.0000000   0.0000000   0.0000000   0.0000000   0.0000000   0.0000000   0.0000000   0.0000000   0.0000000   0.0000000
 NMagM=    2.7928460   0.0000000   2.7928460   2.7928460   0.0000000   2.7928460   2.7928460   0.0000000   2.7928460   2.7928460
 AtZNuc=   1.0000000   8.0000000   1.0000000   1.0000000   8.0000000   1.0000000   1.0000000   8.0000000   1.0000000   1.0000000

  Atom       191         192         193         194         195         196         197         198         199         200
 IAtWgt=          16           1           1          16           1           1          16           1           1          16
 AtmWgt=  15.9949146   1.0078250   1.0078250  15.9949146   1.0078250   1.0078250  15.9949146   1.0078250   1.0078250  15.9949146
 NucSpn=           0           1           1           0           1           1           0           1           1           0
 AtZEff=   0.0000000   0.0000000   0.0000000   0.0000000   0.0000000   0.0000000   0.0000000   0.0000000   0.0000000   0.0000000
 NQMom=    0.0000000   0.0000000   0.0000000   0.0000000   0.0000000   0.0000000   0.0000000   0.0000000   0.0000000   0.0000000
 NMagM=    0.0000000   2.7928460   2.7928460   0.0000000   2.7928460   2.7928460   0.0000000   2.7928460   2.7928460   0.0000000
 AtZNuc=   8.0000000   1.0000000   1.0000000   8.0000000   1.0000000   1.0000000   8.0000000   1.0000000   1.0000000   8.0000000

  Atom       201         202         203         204         205         206         207         208         209         210
 IAtWgt=           1           1          16           1           1          16           1           1          16           1
 AtmWgt=   1.0078250   1.0078250  15.9949146   1.0078250   1.0078250  15.9949146   1.0078250   1.0078250  15.9949146   1.0078250
 NucSpn=           1           1           0           1           1           0           1           1           0           1
 AtZEff=   0.0000000   0.0000000   0.0000000   0.0000000   0.0000000   0.0000000   0.0000000   0.0000000   0.0000000   0.0000000
 NQMom=    0.0000000   0.0000000   0.0000000   0.0000000   0.0000000   0.0000000   0.0000000   0.0000000   0.0000000   0.0000000
 NMagM=    2.7928460   2.7928460   0.0000000   2.7928460   2.7928460   0.0000000   2.7928460   2.7928460   0.0000000   2.7928460
 AtZNuc=   1.0000000   1.0000000   8.0000000   1.0000000   1.0000000   8.0000000   1.0000000   1.0000000   8.0000000   1.0000000

  Atom       211         212         213         214         215         216         217         218         219         220
 IAtWgt=           1          16           1           1          16           1           1          16           1           1
 AtmWgt=   1.0078250  15.9949146   1.0078250   1.0078250  15.9949146   1.0078250   1.0078250  15.9949146   1.0078250   1.0078250
 NucSpn=           1           0           1           1           0           1           1           0           1           1
 AtZEff=   0.0000000   0.0000000   0.0000000   0.0000000   0.0000000   0.0000000   0.0000000   0.0000000   0.0000000   0.0000000
 NQMom=    0.0000000   0.0000000   0.0000000   0.0000000   0.0000000   0.0000000   0.0000000   0.0000000   0.0000000   0.0000000
 NMagM=    2.7928460   0.0000000   2.7928460   2.7928460   0.0000000   2.7928460   2.7928460   0.0000000   2.7928460   2.7928460
 AtZNuc=   1.0000000   8.0000000   1.0000000   1.0000000   8.0000000   1.0000000   1.0000000   8.0000000   1.0000000   1.0000000

  Atom       221         222         223         224         225         226         227         228         229         230
 IAtWgt=          16           1           1          16           1           1          16           1           1          16
 AtmWgt=  15.9949146   1.0078250   1.0078250  15.9949146   1.0078250   1.0078250  15.9949146   1.0078250   1.0078250  15.9949146
 NucSpn=           0           1           1           0           1           1           0           1           1           0
 AtZEff=   0.0000000   0.0000000   0.0000000   0.0000000   0.0000000   0.0000000   0.0000000   0.0000000   0.0000000   0.0000000
 NQMom=    0.0000000   0.0000000   0.0000000   0.0000000   0.0000000   0.0000000   0.0000000   0.0000000   0.0000000   0.0000000
 NMagM=    0.0000000   2.7928460   2.7928460   0.0000000   2.7928460   2.7928460   0.0000000   2.7928460   2.7928460   0.0000000
 AtZNuc=   8.0000000   1.0000000   1.0000000   8.0000000   1.0000000   1.0000000   8.0000000   1.0000000   1.0000000   8.0000000

  Atom       231         232         233         234         235         236         237         238         239         240
 IAtWgt=           1           1          16           1           1          16           1           1          16           1
 AtmWgt=   1.0078250   1.0078250  15.9949146   1.0078250   1.0078250  15.9949146   1.0078250   1.0078250  15.9949146   1.0078250
 NucSpn=           1           1           0           1           1           0           1           1           0           1
 AtZEff=   0.0000000   0.0000000   0.0000000   0.0000000   0.0000000   0.0000000   0.0000000   0.0000000   0.0000000   0.0000000
 NQMom=    0.0000000   0.0000000   0.0000000   0.0000000   0.0000000   0.0000000   0.0000000   0.0000000   0.0000000   0.0000000
 NMagM=    2.7928460   2.7928460   0.0000000   2.7928460   2.7928460   0.0000000   2.7928460   2.7928460   0.0000000   2.7928460
 AtZNuc=   1.0000000   1.0000000   8.0000000   1.0000000   1.0000000   8.0000000   1.0000000   1.0000000   8.0000000   1.0000000

  Atom       241         242         243         244         245         246         247         248         249         250
 IAtWgt=           1          16           1           1          16           1           1          16           1           1
 AtmWgt=   1.0078250  15.9949146   1.0078250   1.0078250  15.9949146   1.0078250   1.0078250  15.9949146   1.0078250   1.0078250
 NucSpn=           1           0           1           1           0           1           1           0           1           1
 AtZEff=   0.0000000   0.0000000   0.0000000   0.0000000   0.0000000   0.0000000   0.0000000   0.0000000   0.0000000   0.0000000
 NQMom=    0.0000000   0.0000000   0.0000000   0.0000000   0.0000000   0.0000000   0.0000000   0.0000000   0.0000000   0.0000000
 NMagM=    2.7928460   0.0000000   2.7928460   2.7928460   0.0000000   2.7928460   2.7928460   0.0000000   2.7928460   2.7928460
 AtZNuc=   1.0000000   8.0000000   1.0000000   1.0000000   8.0000000   1.0000000   1.0000000   8.0000000   1.0000000   1.0000000

  Atom       251         252         253         254         255         256         257         258         259         260
 IAtWgt=          16           1           1          16           1           1          16           1           1          16
 AtmWgt=  15.9949146   1.0078250   1.0078250  15.9949146   1.0078250   1.0078250  15.9949146   1.0078250   1.0078250  15.9949146
 NucSpn=           0           1           1           0           1           1           0           1           1           0
 AtZEff=   0.0000000   0.0000000   0.0000000   0.0000000   0.0000000   0.0000000   0.0000000   0.0000000   0.0000000   0.0000000
 NQMom=    0.0000000   0.0000000   0.0000000   0.0000000   0.0000000   0.0000000   0.0000000   0.0000000   0.0000000   0.0000000
 NMagM=    0.0000000   2.7928460   2.7928460   0.0000000   2.7928460   2.7928460   0.0000000   2.7928460   2.7928460   0.0000000
 AtZNuc=   8.0000000   1.0000000   1.0000000   8.0000000   1.0000000   1.0000000   8.0000000   1.0000000   1.0000000   8.0000000

  Atom       261         262         263         264         265         266         267         268         269         270
 IAtWgt=           1           1          16           1           1          16           1           1          16           1
 AtmWgt=   1.0078250   1.0078250  15.9949146   1.0078250   1.0078250  15.9949146   1.0078250   1.0078250  15.9949146   1.0078250
 NucSpn=           1           1           0           1           1           0           1           1           0           1
 AtZEff=   0.0000000   0.0000000   0.0000000   0.0000000   0.0000000   0.0000000   0.0000000   0.0000000   0.0000000   0.0000000
 NQMom=    0.0000000   0.0000000   0.0000000   0.0000000   0.0000000   0.0000000   0.0000000   0.0000000   0.0000000   0.0000000
 NMagM=    2.7928460   2.7928460   0.0000000   2.7928460   2.7928460   0.0000000   2.7928460   2.7928460   0.0000000   2.7928460
 AtZNuc=   1.0000000   1.0000000   8.0000000   1.0000000   1.0000000   8.0000000   1.0000000   1.0000000   8.0000000   1.0000000

  Atom       271         272         273         274         275         276         277         278         279         280
 IAtWgt=           1          16           1           1          16           1           1          16           1           1
 AtmWgt=   1.0078250  15.9949146   1.0078250   1.0078250  15.9949146   1.0078250   1.0078250  15.9949146   1.0078250   1.0078250
 NucSpn=           1           0           1           1           0           1           1           0           1           1
 AtZEff=   0.0000000   0.0000000   0.0000000   0.0000000   0.0000000   0.0000000   0.0000000   0.0000000   0.0000000   0.0000000
 NQMom=    0.0000000   0.0000000   0.0000000   0.0000000   0.0000000   0.0000000   0.0000000   0.0000000   0.0000000   0.0000000
 NMagM=    2.7928460   0.0000000   2.7928460   2.7928460   0.0000000   2.7928460   2.7928460   0.0000000   2.7928460   2.7928460
 AtZNuc=   1.0000000   8.0000000   1.0000000   1.0000000   8.0000000   1.0000000   1.0000000   8.0000000   1.0000000   1.0000000

  Atom       281         282         283         284         285         286         287         288         289         290
 IAtWgt=          16           1           1          16           1           1          16           1           1          16
 AtmWgt=  15.9949146   1.0078250   1.0078250  15.9949146   1.0078250   1.0078250  15.9949146   1.0078250   1.0078250  15.9949146
 NucSpn=           0           1           1           0           1           1           0           1           1           0
 AtZEff=   0.0000000   0.0000000   0.0000000   0.0000000   0.0000000   0.0000000   0.0000000   0.0000000   0.0000000   0.0000000
 NQMom=    0.0000000   0.0000000   0.0000000   0.0000000   0.0000000   0.0000000   0.0000000   0.0000000   0.0000000   0.0000000
 NMagM=    0.0000000   2.7928460   2.7928460   0.0000000   2.7928460   2.7928460   0.0000000   2.7928460   2.7928460   0.0000000
 AtZNuc=   8.0000000   1.0000000   1.0000000   8.0000000   1.0000000   1.0000000   8.0000000   1.0000000   1.0000000   8.0000000

  Atom       291         292         293         294         295         296         297         298         299         300
 IAtWgt=           1           1          16           1           1          16           1           1          16           1
 AtmWgt=   1.0078250   1.0078250  15.9949146   1.0078250   1.0078250  15.9949146   1.0078250   1.0078250  15.9949146   1.0078250
 NucSpn=           1           1           0           1           1           0           1           1           0           1
 AtZEff=   0.0000000   0.0000000   0.0000000   0.0000000   0.0000000   0.0000000   0.0000000   0.0000000   0.0000000   0.0000000
 NQMom=    0.0000000   0.0000000   0.0000000   0.0000000   0.0000000   0.0000000   0.0000000   0.0000000   0.0000000   0.0000000
 NMagM=    2.7928460   2.7928460   0.0000000   2.7928460   2.7928460   0.0000000   2.7928460   2.7928460   0.0000000   2.7928460
 AtZNuc=   1.0000000   1.0000000   8.0000000   1.0000000   1.0000000   8.0000000   1.0000000   1.0000000   8.0000000   1.0000000

  Atom       301         302         303         304         305         306         307         308         309         310
 IAtWgt=           1          16           1           1          16           1           1          16           1           1
 AtmWgt=   1.0078250  15.9949146   1.0078250   1.0078250  15.9949146   1.0078250   1.0078250  15.9949146   1.0078250   1.0078250
 NucSpn=           1           0           1           1           0           1           1           0           1           1
 AtZEff=   0.0000000   0.0000000   0.0000000   0.0000000   0.0000000   0.0000000   0.0000000   0.0000000   0.0000000   0.0000000
 NQMom=    0.0000000   0.0000000   0.0000000   0.0000000   0.0000000   0.0000000   0.0000000   0.0000000   0.0000000   0.0000000
 NMagM=    2.7928460   0.0000000   2.7928460   2.7928460   0.0000000   2.7928460   2.7928460   0.0000000   2.7928460   2.7928460
 AtZNuc=   1.0000000   8.0000000   1.0000000   1.0000000   8.0000000   1.0000000   1.0000000   8.0000000   1.0000000   1.0000000

  Atom       311         312         313         314         315         316         317         318         319         320
 IAtWgt=          16           1           1          16           1           1          16           1           1          16
 AtmWgt=  15.9949146   1.0078250   1.0078250  15.9949146   1.0078250   1.0078250  15.9949146   1.0078250   1.0078250  15.9949146
 NucSpn=           0           1           1           0           1           1           0           1           1           0
 AtZEff=   0.0000000   0.0000000   0.0000000   0.0000000   0.0000000   0.0000000   0.0000000   0.0000000   0.0000000   0.0000000
 NQMom=    0.0000000   0.0000000   0.0000000   0.0000000   0.0000000   0.0000000   0.0000000   0.0000000   0.0000000   0.0000000
 NMagM=    0.0000000   2.7928460   2.7928460   0.0000000   2.7928460   2.7928460   0.0000000   2.7928460   2.7928460   0.0000000
 AtZNuc=   8.0000000   1.0000000   1.0000000   8.0000000   1.0000000   1.0000000   8.0000000   1.0000000   1.0000000   8.0000000

  Atom       321         322         323         324         325         326         327         328         329         330
 IAtWgt=           1           1          16           1           1          16           1           1          16           1
 AtmWgt=   1.0078250   1.0078250  15.9949146   1.0078250   1.0078250  15.9949146   1.0078250   1.0078250  15.9949146   1.0078250
 NucSpn=           1           1           0           1           1           0           1           1           0           1
 AtZEff=   0.0000000   0.0000000   0.0000000   0.0000000   0.0000000   0.0000000   0.0000000   0.0000000   0.0000000   0.0000000
 NQMom=    0.0000000   0.0000000   0.0000000   0.0000000   0.0000000   0.0000000   0.0000000   0.0000000   0.0000000   0.0000000
 NMagM=    2.7928460   2.7928460   0.0000000   2.7928460   2.7928460   0.0000000   2.7928460   2.7928460   0.0000000   2.7928460
 AtZNuc=   1.0000000   1.0000000   8.0000000   1.0000000   1.0000000   8.0000000   1.0000000   1.0000000   8.0000000   1.0000000

  Atom       331         332         333         334         335         336         337         338         339         340
 IAtWgt=           1          16           1           1          16           1           1          16           1           1
 AtmWgt=   1.0078250  15.9949146   1.0078250   1.0078250  15.9949146   1.0078250   1.0078250  15.9949146   1.0078250   1.0078250
 NucSpn=           1           0           1           1           0           1           1           0           1           1
 AtZEff=   0.0000000   0.0000000   0.0000000   0.0000000   0.0000000   0.0000000   0.0000000   0.0000000   0.0000000   0.0000000
 NQMom=    0.0000000   0.0000000   0.0000000   0.0000000   0.0000000   0.0000000   0.0000000   0.0000000   0.0000000   0.0000000
 NMagM=    2.7928460   0.0000000   2.7928460   2.7928460   0.0000000   2.7928460   2.7928460   0.0000000   2.7928460   2.7928460
 AtZNuc=   1.0000000   8.0000000   1.0000000   1.0000000   8.0000000   1.0000000   1.0000000   8.0000000   1.0000000   1.0000000

  Atom       341         342         343         344         345         346         347         348         349         350
 IAtWgt=          16           1           1          16           1           1          16           1           1          16
 AtmWgt=  15.9949146   1.0078250   1.0078250  15.9949146   1.0078250   1.0078250  15.9949146   1.0078250   1.0078250  15.9949146
 NucSpn=           0           1           1           0           1           1           0           1           1           0
 AtZEff=   0.0000000   0.0000000   0.0000000   0.0000000   0.0000000   0.0000000   0.0000000   0.0000000   0.0000000   0.0000000
 NQMom=    0.0000000   0.0000000   0.0000000   0.0000000   0.0000000   0.0000000   0.0000000   0.0000000   0.0000000   0.0000000
 NMagM=    0.0000000   2.7928460   2.7928460   0.0000000   2.7928460   2.7928460   0.0000000   2.7928460   2.7928460   0.0000000
 AtZNuc=   8.0000000   1.0000000   1.0000000   8.0000000   1.0000000   1.0000000   8.0000000   1.0000000   1.0000000   8.0000000

  Atom       351         352         353         354         355         356         357         358         359         360
 IAtWgt=           1           1          16           1           1          16           1           1          16           1
 AtmWgt=   1.0078250   1.0078250  15.9949146   1.0078250   1.0078250  15.9949146   1.0078250   1.0078250  15.9949146   1.0078250
 NucSpn=           1           1           0           1           1           0           1           1           0           1
 AtZEff=   0.0000000   0.0000000   0.0000000   0.0000000   0.0000000   0.0000000   0.0000000   0.0000000   0.0000000   0.0000000
 NQMom=    0.0000000   0.0000000   0.0000000   0.0000000   0.0000000   0.0000000   0.0000000   0.0000000   0.0000000   0.0000000
 NMagM=    2.7928460   2.7928460   0.0000000   2.7928460   2.7928460   0.0000000   2.7928460   2.7928460   0.0000000   2.7928460
 AtZNuc=   1.0000000   1.0000000   8.0000000   1.0000000   1.0000000   8.0000000   1.0000000   1.0000000   8.0000000   1.0000000

  Atom       361         362         363         364         365         366         367         368         369         370
 IAtWgt=           1          16           1           1          16           1           1          16           1           1
 AtmWgt=   1.0078250  15.9949146   1.0078250   1.0078250  15.9949146   1.0078250   1.0078250  15.9949146   1.0078250   1.0078250
 NucSpn=           1           0           1           1           0           1           1           0           1           1
 AtZEff=   0.0000000   0.0000000   0.0000000   0.0000000   0.0000000   0.0000000   0.0000000   0.0000000   0.0000000   0.0000000
 NQMom=    0.0000000   0.0000000   0.0000000   0.0000000   0.0000000   0.0000000   0.0000000   0.0000000   0.0000000   0.0000000
 NMagM=    2.7928460   0.0000000   2.7928460   2.7928460   0.0000000   2.7928460   2.7928460   0.0000000   2.7928460   2.7928460
 AtZNuc=   1.0000000   8.0000000   1.0000000   1.0000000   8.0000000   1.0000000   1.0000000   8.0000000   1.0000000   1.0000000

  Atom       371         372         373         374         375         376         377         378         379         380
 IAtWgt=          16           1           1          16           1           1          16           1           1          16
 AtmWgt=  15.9949146   1.0078250   1.0078250  15.9949146   1.0078250   1.0078250  15.9949146   1.0078250   1.0078250  15.9949146
 NucSpn=           0           1           1           0           1           1           0           1           1           0
 AtZEff=   0.0000000   0.0000000   0.0000000   0.0000000   0.0000000   0.0000000   0.0000000   0.0000000   0.0000000   0.0000000
 NQMom=    0.0000000   0.0000000   0.0000000   0.0000000   0.0000000   0.0000000   0.0000000   0.0000000   0.0000000   0.0000000
 NMagM=    0.0000000   2.7928460   2.7928460   0.0000000   2.7928460   2.7928460   0.0000000   2.7928460   2.7928460   0.0000000
 AtZNuc=   8.0000000   1.0000000   1.0000000   8.0000000   1.0000000   1.0000000   8.0000000   1.0000000   1.0000000   8.0000000

  Atom       381         382         383         384         385
 IAtWgt=           1           1          16           1           1
 AtmWgt=   1.0078250   1.0078250  15.9949146   1.0078250   1.0078250
 NucSpn=           1           1           0           1           1
 AtZEff=   0.0000000   0.0000000   0.0000000   0.0000000   0.0000000
 NQMom=    0.0000000   0.0000000   0.0000000   0.0000000   0.0000000
 NMagM=    2.7928460   2.7928460   0.0000000   2.7928460   2.7928460
 AtZNuc=   1.0000000   1.0000000   8.0000000   1.0000000   1.0000000
 Leave Link  101 at Tue May  8 17:00:49 2018, MaxMem= 14763950080 cpu:       126.5
 (Enter /cm/shared/gaussian/g09.e01/intel64-sandybridge/g09/l103.exe)

 GradGradGradGradGradGradGradGradGradGradGradGradGradGradGradGradGradGrad
 Berny optimization.
 Initialization pass.
 Trust Radius=3.00D-01 FncErr=1.00D-07 GrdErr=1.00D-07
 Number of steps in this run=      2 maximum allowed number of steps=      2.
 GradGradGradGradGradGradGradGradGradGradGradGradGradGradGradGradGradGrad

 Leave Link  103 at Tue May  8 17:00:49 2018, MaxMem= 14763950080 cpu:         3.6
 (Enter /cm/shared/gaussian/g09.e01/intel64-sandybridge/g09/l202.exe)
 Symmetry turned off by external request.
 Stoichiometry    BrH256O128(1-)
 Framework group  C1[X(BrH256O128)]
 Deg. of freedom  1149
 Full point group                 C1      NOp   1
                          Input orientation:                          
 ---------------------------------------------------------------------
 Center     Atomic      Atomic             Coordinates (Angstroms)
 Number     Number       Type             X           Y           Z
 ---------------------------------------------------------------------
      1         35           0       20.000000   20.000000   20.000000
      2          8           0       21.010000   22.900000   20.330000
      3          1           0       21.410000   23.020000   19.470000
      4          1           0       20.650000   22.020000   20.310000
      5          8           0       22.890000   19.920000   18.950000
      6          1           0       23.310000   20.710000   19.300000
      7          1           0       22.080000   19.850000   19.450000
      8          8           0       18.160000   22.540000   20.430000
      9          1           0       18.770000   22.950000   21.060000
     10          1           0       18.520000   21.670000   20.280000
     11          8           0       20.860000   18.040000   22.440000
     12          1           0       21.470000   17.650000   21.810000
     13          1           0       20.760000   18.950000   22.150000
     14          8           0       17.500000   17.910000   20.800000
     15          1           0       18.100000   18.630000   21.010000
     16          1           0       17.910000   17.470000   20.060000
     17          8           0       18.730000   16.910000   18.660000
     18          1           0       19.230000   16.150000   18.360000
     19          1           0       19.370000   17.620000   18.660000
     20          8           0       18.510000   19.720000   16.630000
     21          1           0       17.640000   19.620000   16.240000
     22          1           0       18.340000   19.990000   17.530000
     23          8           0       21.270000   22.370000   17.360000
     24          1           0       20.690000   22.630000   16.640000
     25          1           0       21.030000   21.460000   17.540000
     26          8           0       21.410000   18.920000   16.980000
     27          1           0       22.030000   19.350000   17.570000
     28          1           0       20.770000   19.590000   16.780000
     29          8           0       16.910000   20.650000   22.230000
     30          1           0       17.490000   21.300000   21.850000
     31          1           0       17.380000   20.310000   22.990000
     32          8           0       18.710000   18.950000   23.640000
     33          1           0       19.260000   18.430000   23.050000
     34          1           0       18.790000   18.510000   24.480000
     35          8           0       15.940000   20.240000   19.560000
     36          1           0       16.540000   20.890000   19.920000
     37          1           0       16.410000   19.410000   19.660000
     38          8           0       21.560000   16.290000   18.550000
     39          1           0       22.080000   16.510000   19.320000
     40          1           0       21.290000   17.140000   18.190000
     41          8           0       19.210000   22.410000   23.540000
     42          1           0       20.050000   22.220000   23.100000
     43          1           0       19.190000   21.810000   24.280000
     44          8           0       19.070000   24.360000   18.270000
     45          1           0       19.590000   23.860000   17.640000
     46          1           0       18.740000   23.700000   18.880000
     47          8           0       16.380000   21.960000   16.890000
     48          1           0       15.770000   22.660000   17.130000
     49          1           0       16.540000   21.480000   17.700000
     50          8           0       19.460000   15.270000   22.160000
     51          1           0       20.190000   14.720000   22.440000
     52          1           0       19.820000   16.160000   22.170000
     53          8           0       19.310000   25.000000   21.350000
     54          1           0       19.830000   24.310000   20.950000
     55          1           0       18.740000   25.320000   20.650000
     56          8           0       24.490000   21.150000   21.440000
     57          1           0       24.190000   21.420000   20.570000
     58          1           0       24.670000   21.970000   21.890000
     59          8           0       19.070000   22.460000   15.700000
     60          1           0       18.400000   23.130000   15.580000
     61          1           0       18.600000   21.700000   16.060000
     62          8           0       23.070000   16.770000   21.070000
     63          1           0       23.770000   17.430000   21.120000
     64          1           0       23.540000   15.930000   21.090000
     65          8           0       24.820000   17.860000   18.110000
     66          1           0       25.110000   18.100000   18.990000
     67          1           0       24.010000   18.350000   17.970000
     68          8           0       20.150000   19.000000   14.450000
     69          1           0       19.750000   18.810000   15.300000
     70          1           0       19.610000   18.530000   13.820000
     71          8           0       24.110000   22.460000   19.050000
     72          1           0       23.500000   23.190000   18.910000
     73          1           0       24.960000   22.880000   19.170000
     74          8           0       25.060000   18.560000   21.300000
     75          1           0       24.800000   19.470000   21.440000
     76          1           0       25.760000   18.410000   21.930000
     77          8           0       22.160000   16.760000   24.820000
     78          1           0       21.830000   15.860000   24.830000
     79          1           0       21.630000   17.210000   24.160000
     80          8           0       16.920000   14.850000   19.790000
     81          1           0       17.360000   15.440000   19.170000
     82          1           0       17.350000   15.010000   20.630000
     83          8           0       22.320000   21.170000   24.790000
     84          1           0       23.160000   21.070000   25.230000
     85          1           0       21.680000   20.900000   25.450000
     86          8           0       14.240000   17.220000   20.950000
     87          1           0       13.620000   17.900000   20.680000
     88          1           0       15.090000   17.660000   20.920000
     89          8           0       14.620000   22.280000   22.890000
     90          1           0       15.210000   21.620000   22.520000
     91          1           0       13.790000   21.810000   23.010000
     92          8           0       15.680000   19.480000   24.960000
     93          1           0       16.100000   20.160000   25.490000
     94          1           0       16.360000   19.220000   24.330000
     95          8           0       19.840000   14.570000   16.920000
     96          1           0       20.310000   14.310000   16.130000
     97          1           0       20.520000   14.790000   17.560000
     98          8           0       13.640000   20.880000   18.000000
     99          1           0       14.410000   20.880000   18.570000
    100          1           0       13.080000   21.560000   18.350000
    101          8           0       24.540000   18.320000   24.610000
    102          1           0       24.340000   17.590000   25.190000
    103          1           0       23.690000   18.710000   24.400000
    104          8           0       23.290000   17.390000   14.670000
    105          1           0       22.520000   17.800000   15.060000
    106          1           0       23.960000   18.070000   14.690000
    107          8           0       22.320000   20.220000   13.950000
    108          1           0       22.520000   19.750000   13.150000
    109          1           0       21.390000   20.040000   14.110000
    110          8           0       21.030000   26.540000   18.020000
    111          1           0       20.930000   26.740000   18.960000
    112          1           0       20.610000   25.680000   17.920000
    113          8           0       16.520000   21.090000   14.230000
    114          1           0       16.350000   21.320000   15.140000
    115          1           0       15.660000   20.860000   13.880000
    116          8           0       14.430000   23.790000   20.580000
    117          1           0       15.240000   23.920000   21.070000
    118          1           0       13.870000   23.280000   21.170000
    119          8           0       21.010000   22.630000   13.660000
    120          1           0       20.280000   22.260000   14.150000
    121          1           0       21.750000   22.060000   13.850000
    122          8           0       17.440000   25.680000   23.630000
    123          1           0       17.840000   24.860000   23.340000
    124          1           0       17.320000   26.200000   22.840000
    125          8           0       26.630000   19.910000   17.120000
    126          1           0       25.730000   19.680000   17.350000
    127          1           0       27.160000   19.190000   17.450000
    128          8           0       17.350000   15.160000   24.070000
    129          1           0       18.050000   14.980000   23.440000
    130          1           0       16.540000   15.010000   23.580000
    131          8           0       20.430000   20.380000   26.520000
    132          1           0       20.270000   20.640000   27.430000
    133          1           0       19.890000   19.600000   26.390000
    134          8           0       18.520000   17.110000   26.010000
    135          1           0       18.230000   16.640000   25.230000
    136          1           0       19.020000   16.460000   26.510000
    137          8           0       22.800000   13.670000   17.350000
    138          1           0       22.770000   14.500000   17.840000
    139          1           0       22.300000   13.060000   17.880000
    140          8           0       17.000000   14.650000   16.190000
    141          1           0       16.850000   15.340000   15.530000
    142          1           0       17.920000   14.750000   16.440000
    143          8           0       20.050000   27.490000   21.930000
    144          1           0       19.990000   27.390000   22.880000
    145          1           0       19.720000   26.660000   21.580000
    146          8           0       24.380000   14.560000   20.600000
    147          1           0       24.590000   13.850000   20.000000
    148          1           0       24.810000   14.320000   21.420000
    149          8           0       22.720000   26.730000   20.940000
    150          1           0       21.980000   26.570000   21.530000
    151          1           0       23.240000   27.400000   21.390000
    152          8           0       17.590000   16.710000   14.000000
    153          1           0       17.180000   16.020000   13.480000
    154          1           0       16.860000   17.250000   14.310000
    155          8           0       14.230000   14.910000   18.920000
    156          1           0       14.070000   15.540000   19.620000
    157          1           0       15.170000   14.970000   18.760000
    158          8           0       24.870000   21.250000   25.780000
    159          1           0       25.090000   21.260000   24.850000
    160          1           0       25.610000   21.670000   26.210000
    161          8           0       21.250000   14.060000   23.800000
    162          1           0       21.990000   13.480000   24.010000
    163          1           0       20.470000   13.520000   23.970000
    164          8           0       17.810000   27.450000   18.000000
    165          1           0       18.000000   26.530000   17.830000
    166          1           0       16.940000   27.440000   18.410000
    167          8           0       26.250000   16.510000   22.910000
    168          1           0       26.470000   16.020000   23.710000
    169          1           0       25.800000   17.300000   23.230000
    170          8           0       25.420000   14.560000   17.620000
    171          1           0       25.090000   15.450000   17.740000
    172          1           0       24.630000   14.010000   17.650000
    173          8           0       23.820000   25.950000   18.070000
    174          1           0       23.480000   25.770000   17.200000
    175          1           0       23.090000   26.330000   18.550000
    176          8           0       15.390000   17.990000   14.850000
    177          1           0       14.780000   18.630000   14.470000
    178          1           0       14.840000   17.440000   15.400000
    179          8           0       21.880000   25.660000   24.940000
    180          1           0       21.350000   24.890000   25.180000
    181          1           0       22.740000   25.490000   25.320000
    182          8           0       21.520000   23.700000   27.080000
    183          1           0       21.340000   22.990000   26.470000
    184          1           0       22.310000   23.410000   27.550000
    185          8           0       26.740000   19.650000   24.040000
    186          1           0       26.620000   20.460000   23.560000
    187          1           0       25.860000   19.350000   24.250000
    188          8           0       24.410000   21.650000   13.410000
    189          1           0       23.590000   21.280000   13.730000
    190          1           0       24.630000   22.340000   14.030000
    191          8           0       21.990000   17.330000   27.360000
    192          1           0       22.270000   17.330000   26.450000
    193          1           0       22.430000   18.080000   27.760000
    194          8           0       13.710000   20.510000   15.050000
    195          1           0       13.850000   20.390000   15.990000
    196          1           0       12.780000   20.370000   14.920000
    197          8           0       26.720000   21.960000   22.930000
    198          1           0       26.870000   21.630000   22.050000
    199          1           0       27.420000   22.600000   23.070000
    200          8           0       16.710000   21.520000   26.400000
    201          1           0       17.420000   21.420000   27.040000
    202          1           0       16.170000   22.230000   26.750000
    203          8           0       17.510000   24.490000   14.700000
    204          1           0       17.680000   24.320000   13.780000
    205          1           0       17.800000   25.400000   14.840000
    206          8           0       14.910000   15.290000   22.920000
    207          1           0       14.160000   15.480000   22.360000
[...]
   X336      46.12821  -0.00726   0.00000  -0.00563  -0.00557  46.12265
   Y336      24.43416  -0.00938   0.00000  -0.01015  -0.00964  24.42452
   Z336      44.65423  -0.00010   0.00000  -0.00621  -0.00525  44.64898
   X337      48.30140   0.00369   0.00000   0.00185   0.00181  48.30321
   Y337      26.19160   0.00184   0.00000  -0.00007   0.00051  26.19212
   Z337      45.27784   0.00660   0.00000   0.00405   0.00513  45.28297
   X338      42.72671   0.00315   0.00000  -0.00078   0.00050  42.72721
   Y338      23.01686  -0.01025   0.00000  -0.01315  -0.01307  23.00380
   Z338      28.27030  -0.00527   0.00000  -0.00272  -0.00198  28.26833
   X339      42.65112   0.00618   0.00000   0.01126   0.01241  42.66353
   Y339      23.98062   0.01037   0.00000   0.01309   0.01320  23.99382
   Z339      29.80098   0.00238   0.00000  -0.00565  -0.00493  29.79605
   X340      41.00706  -0.00452   0.00000  -0.00542  -0.00410  41.00296
   Y340      22.99797  -0.00043   0.00000  -0.00080  -0.00078  22.99718
   Z340      27.68449  -0.00134   0.00000  -0.00162  -0.00100  27.68349
   X341      50.62576  -0.00070   0.00000  -0.00161  -0.00062  50.62514
   Y341      31.67181  -0.00130   0.00000  -0.00114  -0.00081  31.67100
   Z341      28.89391   0.00008   0.00000  -0.00179  -0.00065  28.89326
   X342      52.15644   0.00106   0.00000  -0.00075   0.00018  52.15662
   Y342      32.59778   0.00243   0.00000   0.00220   0.00258  32.60035
   Z342      29.21517   0.00083   0.00000   0.00050   0.00174  29.21691
   X343      51.02261  -0.00468   0.00000  -0.00866  -0.00767  51.01494
   Y343      29.97106  -0.00108   0.00000  -0.00208  -0.00173  29.96933
   Z343      29.42304   0.00047   0.00000   0.00031   0.00152  29.42456
   X344      36.71738   0.00599   0.00000   0.00694   0.00671  36.72409
   Y344      55.40677   0.01435   0.00000   0.01300   0.01306  55.41983
   Z344      35.98039   0.01339   0.00000   0.01360   0.01327  35.99365
   X345      35.47016   0.00166   0.00000   0.00980   0.00964  35.47980
   Y345      54.23514  -0.00674   0.00000  -0.00263  -0.00262  54.23252
   Z345      35.37567  -0.00439   0.00000  -0.00086  -0.00126  35.37441
   X346      38.17247  -0.00111   0.00000  -0.00410  -0.00425  38.16822
   Y346      55.10441  -0.00271   0.00000  -0.00151  -0.00144  55.10298
   Z346      34.94104  -0.00598   0.00000  -0.00616  -0.00639  34.93465
   X347      37.58665  -0.02398   0.00000  -0.01791  -0.01864  37.56801
   Y347      30.06554  -0.00322   0.00000   0.00108   0.00150  30.06705
   Z347      53.13910   0.00852   0.00000   0.01358   0.01381  53.15291
   X348      39.19292   0.01401   0.00000   0.00368   0.00294  39.19586
   Y348      30.89702   0.01066   0.00000   0.01008   0.01055  30.90757
   Z348      53.12020  -0.00741   0.00000  -0.01300  -0.01266  53.10754
   X349      37.96460  -0.00108   0.00000  -0.00423  -0.00486  37.95974
   Y349      28.36479   0.00159   0.00000   0.00422   0.00464  28.36943
   Z349      52.59108   0.00278   0.00000   0.00583   0.00612  52.59720
   X350      36.35833  -0.00627   0.00000  -0.00259  -0.00383  36.35450
   Y350      43.21804  -0.00795   0.00000  -0.00901  -0.00859  43.20945
   Z350      54.85875   0.00068   0.00000  -0.00160  -0.00172  54.85703
   X351      36.69848   0.00743   0.00000   0.01125   0.01008  36.70856
   Y351      44.33298   0.00256   0.00000   0.00003   0.00043  44.33341
   Z351      53.46035  -0.00138   0.00000   0.00114   0.00102  53.46138
   X352      37.77563   0.00230   0.00000   0.00141   0.00008  37.77571
   Y352      43.44480   0.00363   0.00000   0.00434   0.00483  43.44963
   Z352      55.97369  -0.00180   0.00000  -0.00389  -0.00391  55.96978
   X353      22.29877  -0.00816   0.00000  -0.00581  -0.00507  22.29370
   Y353      28.62935   0.01048   0.00000   0.01024   0.00981  28.63916
   Z353      33.50484  -0.02511   0.00000  -0.01390  -0.01475  33.49009
   X354      21.08934  -0.01147   0.00000  -0.00871  -0.00802  21.08132
   Y354      27.79787  -0.00959   0.00000  -0.00756  -0.00799  27.78988
   Z354      34.52530   0.00804   0.00000   0.00212   0.00120  34.52649
   X355      23.79165   0.02244   0.00000   0.01750   0.01816  23.80981
   Y355      28.68604  -0.00327   0.00000  -0.00592  -0.00628  28.67976
   Z355      34.50640   0.01060   0.00000   0.00230   0.00156  34.50796
   X356      42.38656   0.02865   0.00000   0.02033   0.02051  42.40707
   Y356      21.69406   0.01086   0.00000   0.00761   0.00800  21.70205
   Z356      44.01172   0.01683   0.00000   0.01329   0.01404  44.02576
   X357      41.32831  -0.01211   0.00000  -0.00838  -0.00825  41.32006
   Y357      20.74919  -0.00947   0.00000  -0.00679  -0.00642  20.74278
   Z357      45.10776   0.00766   0.00000   0.00391   0.00460  45.11236
   X358      41.49839  -0.01313   0.00000  -0.00631  -0.00601  41.49237
   Y358      21.75075   0.00672   0.00000   0.01304   0.01337  21.76411
   Z358      42.44325  -0.01752   0.00000  -0.00642  -0.00574  42.43751
   X359      50.79584  -0.00374   0.00000  -0.00154  -0.00234  50.79350
   Y359      36.45282   0.00087   0.00000   0.00409   0.00487  36.45769
   Z359      51.51393   0.01047   0.00000   0.00700   0.00806  51.52200
   X360      49.43524  -0.00046   0.00000   0.00185   0.00113  49.43636
   Y360      36.73628  -0.00040   0.00000  -0.00251  -0.00179  36.73448
   Z360      50.34230  -0.00514   0.00000  -0.00573  -0.00477  50.33753
   X361      52.28872   0.00300   0.00000  -0.00032  -0.00106  52.28766
   Y361      36.88745  -0.00006   0.00000  -0.00322  -0.00241  36.88504
   Z361      50.58797  -0.00906   0.00000  -0.01137  -0.01021  50.57776
   X362      28.87502  -0.00986   0.00000  -0.01337  -0.01315  28.86187
   Y362      51.15489  -0.00642   0.00000  -0.00591  -0.00618  51.14871
   Z362      31.52063   0.00879   0.00000   0.00426   0.00343  31.52407
   X363      29.76319   0.01394   0.00000   0.01687   0.01719  29.78038
   Y363      51.55173  -0.00214   0.00000  -0.00702  -0.00729  51.54444
   Z363      29.98995  -0.00679   0.00000   0.00203   0.00127  29.99122
   X364      27.47662  -0.00644   0.00000  -0.00865  -0.00847  27.46815
   Y364      52.30762   0.00455   0.00000   0.00625   0.00594  52.31356
   Z364      31.53953  -0.00178   0.00000  -0.00337  -0.00432  31.53521
   X365      47.71558   0.00804   0.00000   0.00203   0.00213  47.71772
   Y365      53.06351   0.02054   0.00000   0.01726   0.01756  53.08107
   Z365      32.29542  -0.00016   0.00000  -0.00180  -0.00129  32.29413
   X366      47.79117  -0.00039   0.00000   0.00003   0.00027  47.79145
   Y366      52.42100  -0.00353   0.00000  -0.00137  -0.00109  52.41991
   Z366      30.61356  -0.00715   0.00000  -0.00491  -0.00439  30.60918
   X367      46.69513  -0.00433   0.00000   0.00364   0.00372  46.69885
   Y367      51.85409  -0.01365   0.00000  -0.01064  -0.01034  51.84374
   Z367      33.18359   0.00600   0.00000   0.00277   0.00322  33.18682
   X368      37.62445   0.00547   0.00000  -0.00160  -0.00025  37.62420
   Y368      23.26253  -0.00493   0.00000   0.00059   0.00050  23.26303
   Z368      27.19316   0.00551   0.00000   0.00577   0.00614  27.19930
   X369      36.28274  -0.00509   0.00000  -0.00758  -0.00625  36.27649
   Y369      22.31767  -0.00148   0.00000  -0.00125  -0.00137  22.31630
   Z369      27.96795   0.00116   0.00000   0.00068   0.00097  27.96892
   X370      36.81187  -0.00796   0.00000  -0.00902  -0.00766  36.80421
   Y370      24.71762   0.00981   0.00000   0.00719   0.00706  24.72467
   Z370      26.51286  -0.00582   0.00000  -0.00587  -0.00559  26.50726
   X371      55.08552   0.00855   0.00000   0.00708   0.00682  55.09234
   Y371      34.71427  -0.01136   0.00000  -0.01062  -0.00985  34.70442
   Z371      44.82430  -0.00224   0.00000  -0.00258  -0.00117  44.82313
   X372      53.32807  -0.00572   0.00000  -0.00057  -0.00087  53.32720
   Y372      35.07332   0.00723   0.00000   0.00819   0.00892  35.08224
   Z372      45.14556  -0.00063   0.00000  -0.00442  -0.00315  45.14241
   X373      55.91700  -0.00133   0.00000  -0.00298  -0.00331  55.91369
   Y373      36.30164   0.00497   0.00000   0.00160   0.00240  36.30404
   Z373      45.08887   0.00162   0.00000   0.00053   0.00196  45.09083
   X374      34.14735  -0.02051   0.00000  -0.01715  -0.01786  34.12949
   Y374      55.99259   0.00819   0.00000   0.00454   0.00465  55.99723
   Z374      42.38656   0.00077   0.00000  -0.00092  -0.00146  42.38510
   X375      34.82765   0.01256   0.00000   0.01460   0.01390  34.84155
   Y375      54.40522  -0.00479   0.00000   0.00242   0.00256  54.40778
   Z375      42.91568  -0.00037   0.00000  -0.00233  -0.00279  42.91289
   X376      35.47016   0.00652   0.00000   0.00190   0.00124  35.47140
   Y376      56.74848  -0.00526   0.00000  -0.01083  -0.01071  56.73777
   Z376      41.40390  -0.00656   0.00000  -0.00669  -0.00714  41.39676
   X377      45.29674   0.00503   0.00000   0.00882   0.00777  45.30451
   Y377      47.58330  -0.00660   0.00000  -0.01103  -0.01043  47.57287
   Z377      50.41789  -0.00221   0.00000   0.00102   0.00146  50.41936
   X378      47.11087   0.00386   0.00000   0.00806   0.00701  47.11788
   Y378      47.65889   0.00019   0.00000   0.00001   0.00066  47.65955
   Z378      50.43679   0.00251   0.00000   0.00448   0.00505  50.44184
   X379      44.80541  -0.00294   0.00000  -0.00270  -0.00388  44.80152
   Y379      48.22581   0.00540   0.00000   0.00723   0.00784  48.23365
   Z379      52.04306   0.00221   0.00000  -0.00223  -0.00184  52.04122
   X380      49.11398   0.01555   0.00000   0.01114   0.01039  49.12437
   Y380      49.94546  -0.00583   0.00000  -0.00440  -0.00379  49.94167
   Z380      45.35343   0.00227   0.00000   0.00049   0.00116  45.35459
   X381      47.50771  -0.01287   0.00000  -0.00600  -0.00674  47.50098
   Y381      50.66356   0.00376   0.00000  -0.00039   0.00016  50.66372
   Z381      44.97548  -0.00329   0.00000  -0.00393  -0.00339  44.97210
   X382      48.88722  -0.00383   0.00000  -0.00506  -0.00591  48.88131
   Y382      49.20847   0.00138   0.00000   0.00163   0.00227  49.21074
   Z382      46.99749   0.00071   0.00000   0.00092   0.00159  46.99907
   X383      31.33166  -0.00485   0.00000  -0.00018  -0.00110  31.33056
   Y383      32.76785  -0.00105   0.00000   0.00071   0.00098  32.76883
   Z383      54.78316  -0.00222   0.00000  -0.00206  -0.00233  54.78083
   X384      31.38835  -0.00047   0.00000   0.00029  -0.00077  31.38758
   Y384      33.63713   0.00150   0.00000  -0.00010   0.00021  33.63733
   Z384      56.37053   0.00541   0.00000   0.00490   0.00461  56.37514
   X385      33.01352   0.00788   0.00000   0.00736   0.00647  33.01999
   Y385      32.95682  -0.00363   0.00000  -0.00745  -0.00714  32.94968
   Z385      54.12176  -0.00660   0.00000  -0.00840  -0.00856  54.11320
         Item               Value     Threshold  Converged?
 Maximum Force            0.033175     0.000450     NO 
 RMS     Force            0.010126     0.000300     NO 
 Maximum Displacement     0.037802     0.001800     NO 
 RMS     Displacement     0.008830     0.001200     NO 
 Predicted change in Energy=-7.028429D-02
 GradGradGradGradGradGradGradGradGradGradGradGradGradGradGradGradGradGrad

 Leave Link  103 at Tue May  8 19:20:49 2018, MaxMem= 14763950080 cpu:      2726.6
 (Enter /cm/shared/gaussian/g09.e01/intel64-sandybridge/g09/l9999.exe)
 1\1\GINC-POPLE01\Force\RPBE1PBE\CC-pVDZ\Br1H256O128(1-)\M.PELUSO\08-Ma
 y-2018\0\\#p PBE1PBE/cc-pvDZ force Counterpoise=2 noSymm\\forces on ch
 loride comput - NWATER: 128\\-1,1\Br,20.,20.,20.\O,21.01,22.9,20.33\H,
 21.41,23.02,19.47\H,20.65,22.02,20.31\O,22.89,19.92,18.95\H,23.31,20.7
 1,19.3\H,22.08,19.85,19.45\O,18.16,22.54,20.43\H,18.77,22.95,21.06\H,1
 8.52,21.67,20.28\O,20.86,18.04,22.44\H,21.47,17.65,21.81\H,20.76,18.95
 ,22.15\O,17.5,17.91,20.8\H,18.1,18.63,21.01\H,17.91,17.47,20.06\O,18.7
 3,16.91,18.66\H,19.23,16.15,18.36\H,19.37,17.62,18.66\O,18.51,19.72,16
 .63\H,17.64,19.62,16.24\H,18.34,19.99,17.53\O,21.27,22.37,17.36\H,20.6
 9,22.63,16.64\H,21.03,21.46,17.54\O,21.41,18.92,16.98\H,22.03,19.35,17
 .57\H,20.77,19.59,16.78\O,16.91,20.65,22.23\H,17.49,21.3,21.85\H,17.38
 ,20.31,22.99\O,18.71,18.95,23.64\H,19.26,18.43,23.05\H,18.79,18.51,24.
 48\O,15.94,20.24,19.56\H,16.54,20.89,19.92\H,16.41,19.41,19.66\O,21.56
 ,16.29,18.55\H,22.08,16.51,19.32\H,21.29,17.14,18.19\O,19.21,22.41,23.
 54\H,20.05,22.22,23.1\H,19.19,21.81,24.28\O,19.07,24.36,18.27\H,19.59,
 23.86,17.64\H,18.74,23.7,18.88\O,16.38,21.96,16.89\H,15.77,22.66,17.13
 \H,16.54,21.48,17.7\O,19.46,15.27,22.16\H,20.19,14.72,22.44\H,19.82,16
 .16,22.17\O,19.31,25.,21.35\H,19.83,24.31,20.95\H,18.74,25.32,20.65\O,
 24.49,21.15,21.44\H,24.19,21.42,20.57\H,24.67,21.97,21.89\O,19.07,22.4
 6,15.7\H,18.4,23.13,15.58\H,18.6,21.7,16.06\O,23.07,16.77,21.07\H,23.7
 7,17.43,21.12\H,23.54,15.93,21.09\O,24.82,17.86,18.11\H,25.11,18.1,18.
 99\H,24.01,18.35,17.97\O,20.15,19.,14.45\H,19.75,18.81,15.3\H,19.61,18
 .53,13.82\O,24.11,22.46,19.05\H,23.5,23.19,18.91\H,24.96,22.88,19.17\O
 ,25.06,18.56,21.3\H,24.8,19.47,21.44\H,25.76,18.41,21.93\O,22.16,16.76
 ,24.82\H,21.83,15.86,24.83\H,21.63,17.21,24.16\O,16.92,14.85,19.79\H,1
 7.36,15.44,19.17\H,17.35,15.01,20.63\O,22.32,21.17,24.79\H,23.16,21.07
 ,25.23\H,21.68,20.9,25.45\O,14.24,17.22,20.95\H,13.62,17.9,20.68\H,15.
 09,17.66,20.92\O,14.62,22.28,22.89\H,15.21,21.62,22.52\H,13.79,21.81,2
 3.01\O,15.68,19.48,24.96\H,16.1,20.16,25.49\H,16.36,19.22,24.33\O,19.8
 4,14.57,16.92\H,20.31,14.31,16.13\H,20.52,14.79,17.56\O,13.64,20.88,18
 .\H,14.41,20.88,18.57\H,13.08,21.56,18.35\O,24.54,18.32,24.61\H,24.34,
 17.59,25.19\H,23.69,18.71,24.4\O,23.29,17.39,14.67\H,22.52,17.8,15.06\
 H,23.96,18.07,14.69\O,22.32,20.22,13.95\H,22.52,19.75,13.15\H,21.39,20
 .04,14.11\O,21.03,26.54,18.02\H,20.93,26.74,18.96\H,20.61,25.68,17.92\
 O,16.52,21.09,14.23\H,16.35,21.32,15.14\H,15.66,20.86,13.88\O,14.43,23
 .79,20.58\H,15.24,23.92,21.07\H,13.87,23.28,21.17\O,21.01,22.63,13.66\
 H,20.28,22.26,14.15\H,21.75,22.06,13.85\O,17.44,25.68,23.63\H,17.84,24
 .86,23.34\H,17.32,26.2,22.84\O,26.63,19.91,17.12\H,25.73,19.68,17.35\H
 ,27.16,19.19,17.45\O,17.35,15.16,24.07\H,18.05,14.98,23.44\H,16.54,15.
 01,23.58\O,20.43,20.38,26.52\H,20.27,20.64,27.43\H,19.89,19.6,26.39\O,
 18.52,17.11,26.01\H,18.23,16.64,25.23\H,19.02,16.46,26.51\O,22.8,13.67
 ,17.35\H,22.77,14.5,17.84\H,22.3,13.06,17.88\O,17.,14.65,16.19\H,16.85
 ,15.34,15.53\H,17.92,14.75,16.44\O,20.05,27.49,21.93\H,19.99,27.39,22.
 88\H,19.72,26.66,21.58\O,24.38,14.56,20.6\H,24.59,13.85,20.\H,24.81,14
 .32,21.42\O,22.72,26.73,20.94\H,21.98,26.57,21.53\H,23.24,27.4,21.39\O
 ,17.59,16.71,14.\H,17.18,16.02,13.48\H,16.86,17.25,14.31\O,14.23,14.91
 ,18.92\H,14.07,15.54,19.62\H,15.17,14.97,18.76\O,24.87,21.25,25.78\H,2
 5.09,21.26,24.85\H,25.61,21.67,26.21\O,21.25,14.06,23.8\H,21.99,13.48,
 24.01\H,20.47,13.52,23.97\O,17.81,27.45,18.\H,18.,26.53,17.83\H,16.94,
 27.44,18.41\O,26.25,16.51,22.91\H,26.47,16.02,23.71\H,25.8,17.3,23.23\
 O,25.42,14.56,17.62\H,25.09,15.45,17.74\H,24.63,14.01,17.65\O,23.82,25
 .95,18.07\H,23.48,25.77,17.2\H,23.09,26.33,18.55\O,15.39,17.99,14.85\H
 ,14.78,18.63,14.47\H,14.84,17.44,15.4\O,21.88,25.66,24.94\H,21.35,24.8
 9,25.18\H,22.74,25.49,25.32\O,21.52,23.7,27.08\H,21.34,22.99,26.47\H,2
 2.31,23.41,27.55\O,26.74,19.65,24.04\H,26.62,20.46,23.56\H,25.86,19.35
 ,24.25\O,24.41,21.65,13.41\H,23.59,21.28,13.73\H,24.63,22.34,14.03\O,2
 1.99,17.33,27.36\H,22.27,17.33,26.45\H,22.43,18.08,27.76\O,13.71,20.51
 ,15.05\H,13.85,20.39,15.99\H,12.78,20.37,14.92\O,26.72,21.96,22.93\H,2
 6.87,21.63,22.05\H,27.42,22.6,23.07\O,16.71,21.52,26.4\H,17.42,21.42,2
 7.04\H,16.17,22.23,26.75\O,17.51,24.49,14.7\H,17.68,24.32,13.78\H,17.8
 ,25.4,14.84\O,14.91,15.29,22.92\H,14.16,15.48,22.36\H,14.89,15.98,23.5
 9\O,26.94,16.54,20.15\H,27.02,15.64,19.82\H,26.47,16.45,20.98\O,17.91,
 21.94,12.17\H,18.85,21.78,12.07\H,17.69,21.55,13.01\O,14.55,24.04,16.6
 2\H,13.67,24.15,16.25\H,14.9,24.93,16.69\O,15.42,26.27,19.38\H,15.24,2
 6.53,18.48\H,14.81,25.55,19.55\O,12.25,18.52,17.29\H,12.85,17.81,17.05
 \H,12.74,19.07,17.89\O,14.72,25.09,23.81\H,14.69,24.16,23.59\H,15.66,2
 5.29,23.88\O,27.59,20.81,20.77\H,27.81,19.88,20.72\H,28.41,21.26,20.54
 \O,26.75,23.61,19.07\H,27.6,23.44,19.46\H,26.89,23.47,18.13\O,25.14,23
 .52,14.92\H,25.68,23.15,15.62\H,24.81,24.34,15.28\O,20.45,20.46,11.48\
 H,20.94,20.09,12.21\H,20.03,19.7,11.07\O,12.07,22.89,19.59\H,12.89,23.
 38,19.59\H,11.79,22.88,20.5\O,24.03,14.89,14.26\H,23.75,15.78,14.48\H,
 23.24,14.48,13.89\O,12.06,20.7,22.49\H,12.29,20.22,21.69\H,11.14,20.93
 ,22.37\O,27.25,22.55,16.54\H,27.05,21.66,16.84\H,28.21,22.56,16.45\O,2
 0.73,11.93,18.42\H,20.69,11.01,18.14\H,20.09,12.38,17.88\O,13.47,17.05
 ,24.68\H,13.87,16.88,25.53\H,13.78,17.92,24.43\O,16.65,27.1,21.57\H,16
 .13,26.89,20.79\H,16.86,28.03,21.48\O,15.23,23.61,13.52\H,16.02,23.72,
 14.05\H,14.65,23.08,14.07\O,26.26,26.14,20.01\H,26.56,25.26,19.76\H,25
 .33,26.15,19.79\O,16.66,18.84,11.92\H,17.16,18.3,12.54\H,15.84,19.03,1
 2.38\O,15.62,12.44,17.75\H,14.96,12.95,18.21\H,16.37,13.03,17.68\O,23.
 5,25.76,15.32\H,24.32,26.16,15.02\H,23.02,25.58,14.51\O,21.98,25.29,13
 .28\H,21.75,24.36,13.22\H,21.14,25.74,13.33\O,23.59,19.66,27.87\H,23.9
 ,20.34,27.28\H,23.07,20.12,28.52\O,26.31,19.78,14.14\H,26.68,20.03,14.
 99\H,25.66,20.46,13.96\O,11.79,18.68,20.33\H,11.26,18.,20.74\H,11.15,1
 9.3,19.96\O,20.54,13.86,26.7\H,21.03,14.08,25.9\H,20.66,12.92,26.8\O,1
 9.63,17.72,11.89\H,19.39,16.8,12.02\H,20.56,17.69,11.63\O,19.06,12.17,
 23.04\H,19.38,11.68,22.29\H,18.12,12.26,22.89\O,17.81,13.49,26.23\H,18
 .75,13.62,26.34\H,17.55,14.15,25.59\O,17.93,27.16,15.24\H,18.15,27.31,
 16.16\H,18.02,28.01,14.83\O,17.85,20.09,28.27\H,17.75,20.02,29.22\H,16
 .98,19.92,27.92\O,14.49,18.47,27.47\H,15.16,17.9,27.83\H,14.88,18.84,2
 6.68\O,28.68,17.38,17.98\H,27.84,17.06,18.34\H,29.01,16.65,17.46\O,21.
 03,11.15,21.01\H,21.68,10.48,20.81\H,20.78,11.5,20.16\O,19.13,27.68,24
 .91\H,18.45,27.22,24.42\H,19.34,27.1,25.64\O,13.,22.69,25.64\H,13.71,2
 2.05,25.53\H,13.35,23.33,26.26\O,13.43,16.34,15.77\H,13.02,15.63,16.25
 \H,12.84,16.51,15.04\O,24.58,17.58,11.92\H,25.48,17.53,12.24\H,24.06,1
 7.75,12.7\O,20.81,28.79,16.06\H,20.78,27.92,16.45\H,21.51,29.24,16.52\
 O,16.17,11.82,22.3\H,15.76,12.48,21.76\H,16.11,11.01,21.79\O,24.22,11.
 81,19.64\H,24.08,10.89,19.86\H,23.57,12.01,18.97\O,25.04,13.53,23.23\H
 ,24.41,12.93,23.63\H,25.56,13.86,23.96\O,22.61,12.18,14.96\H,22.57,12.
 69,15.77\H,21.7,12.17,14.65\O,26.79,16.76,15.29\H,27.6,17.25,15.46\H,2
 7.,15.86,15.57\O,19.43,29.32,19.04\H,18.77,28.7,18.72\H,20.2,29.16,18.
 49\O,19.89,15.91,28.12\H,20.74,16.35,28.11\H,20.09,15.01,27.83\O,19.24
 ,22.87,29.03\H,19.42,23.46,28.29\H,19.99,22.99,29.62\O,11.8,15.15,17.7
 3\H,11.16,14.71,18.27\H,12.59,15.18,18.26\O,22.43,11.48,23.29\H,21.87,
 10.98,23.87\H,21.96,11.51,22.46\O,26.88,19.29,27.26\H,26.16,19.44,26.6
 4\H,27.67,19.52,26.77\O,15.28,27.07,16.68\H,15.75,27.28,15.87\H,14.54,
 27.68,16.69\O,25.25,28.08,17.09\H,25.29,27.74,16.2\H,24.71,27.44,17.56
 \O,19.91,12.31,14.39\H,19.2,11.81,14.8\H,19.48,13.08,14.03\O,29.15,18.
 37,23.72\H,28.22,18.56,23.89\H,29.59,19.21,23.86\O,18.07,29.63,22.43\H
 ,18.43,28.79,22.71\H,18.77,30.03,21.91\O,23.97,25.18,26.68\H,24.93,25.
 22,26.69\H,23.71,25.52,27.54\O,25.99,26.43,24.\H,25.14,26.81,23.8\H,25
 .87,26.04,24.87\O,16.58,17.34,28.99\H,16.61,17.8,29.83\H,17.47,17.44,2
 8.64\\Version=ES64L-G09RevE.01\HF=-9773.3055486\RMSD=1.852e-09\RMSF=1.
 013e-02\Dipole=0.4798186,-5.5519137,7.7651476\Quadrupole=9.7355976,-47
 2.3787311,462.6431335,-1634.3573545,-963.5831485,-1320.1885305\PG=C01 
 [X(Br1H256O128)]\\@


 NOTHING PUZZLES ME MORE THAN TIME AND SPACE; AND YET NOTHING TROUBLES ME LESS
                                                          -- CHARLES LAMB (1810)
 Job cpu time:       6 days  2 hours 59 minutes  8.1 seconds.
 File lengths (MBytes):  RWF=   7285 Int=      0 D2E=      0 Chk=   2411 Scr=      1
 Normal termination of Gaussian 09 at Tue May  8 19:21:15 2018.
