 Entering Gaussian System, Link 0=/cm/shared/gaussian/g09.e01/intel64-sandybridge/g09/g09
 Initial command:
 /cm/shared/gaussian/g09.e01/intel64-sandybridge/g09/l1.exe "/local/scratch/m.peluso/128_wat/370/Gau-56921.inp" -scrdir="/local/scratch/m.peluso/128_wat/370/"
 Entering Link 1 = /cm/shared/gaussian/g09.e01/intel64-sandybridge/g09/l1.exe PID=     56922.
  
 Copyright (c) 1988,1990,1992,1993,1995,1998,2003,2009,2015,
            Gaussian, Inc.  All Rights Reserved.
  
 This is part of the Gaussian(R) 09 program.  It is based on
 the Gaussian(R) 03 system (copyright 2003, Gaussian, Inc.),
 the Gaussian(R) 98 system (copyright 1998, Gaussian, Inc.),
 the Gaussian(R) 94 system (copyright 1995, Gaussian, Inc.),
 the Gaussian 92(TM) system (copyright 1992, Gaussian, Inc.),
 the Gaussian 90(TM) system (copyright 1990, Gaussian, Inc.),
 the Gaussian 88(TM) system (copyright 1988, Gaussian, Inc.),
 the Gaussian 86(TM) system (copyright 1986, Carnegie Mellon
 University), and the Gaussian 82(TM) system (copyright 1983,
 Carnegie Mellon University). Gaussian is a federally registered
 trademark of Gaussian, Inc.
  
 This software contains proprietary and confidential information,
 including trade secrets, belonging to Gaussian, Inc.
  
 This software is provided under written license and may be
 used, copied, transmitted, or stored only in accord with that
 written license.
  
 The following legend is applicable only to US Government
 contracts under FAR:
  
                    RESTRICTED RIGHTS LEGEND
  
 Use, reproduction and disclosure by the US Government is
 subject to restrictions as set forth in subparagraphs (a)
 and (c) of the Commercial Computer Software - Restricted
 Rights clause in FAR 52.227-19.
  
 Gaussian, Inc.
 340 Quinnipiac St., Bldg. 40, Wallingford CT 06492
  
  
 ---------------------------------------------------------------
 Warning -- This program may not be used in any manner that
 competes with the business of Gaussian, Inc. or will provide
 assistance to any competitor of Gaussian, Inc.  The licensee
 of this program is prohibited from giving any competitor of
 Gaussian, Inc. access to this program.  By using this program,
 the user acknowledges that Gaussian, Inc. is engaged in the
 business of creating and licensing software in the field of
 computational chemistry and represents and warrants to the
 licensee that it is not a competitor of Gaussian, Inc. and that
 it will not use this program in any manner prohibited above.
 ---------------------------------------------------------------
  

 Cite this work as:
 Gaussian 09, Revision E.01,
 M. J. Frisch, G. W. Trucks, H. B. Schlegel, G. E. Scuseria, 
 M. A. Robb, J. R. Cheeseman, G. Scalmani, V. Barone, B. Mennucci, 
 G. A. Petersson, H. Nakatsuji, M. Caricato, X. Li, H. P. Hratchian, 
 A. F. Izmaylov, J. Bloino, G. Zheng, J. L. Sonnenberg, M. Hada, 
 M. Ehara, K. Toyota, R. Fukuda, J. Hasegawa, M. Ishida, T. Nakajima, 
 Y. Honda, O. Kitao, H. Nakai, T. Vreven, J. A. Montgomery, Jr., 
 J. E. Peralta, F. Ogliaro, M. Bearpark, J. J. Heyd, E. Brothers, 
 K. N. Kudin, V. N. Staroverov, T. Keith, R. Kobayashi, J. Normand, 
 K. Raghavachari, A. Rendell, J. C. Burant, S. S. Iyengar, J. Tomasi, 
 M. Cossi, N. Rega, J. M. Millam, M. Klene, J. E. Knox, J. B. Cross, 
 V. Bakken, C. Adamo, J. Jaramillo, R. Gomperts, R. E. Stratmann, 
 O. Yazyev, A. J. Austin, R. Cammi, C. Pomelli, J. W. Ochterski, 
 R. L. Martin, K. Morokuma, V. G. Zakrzewski, G. A. Voth, 
 P. Salvador, J. J. Dannenberg, S. Dapprich, A. D. Daniels, 
 O. Farkas, J. B. Foresman, J. V. Ortiz, J. Cioslowski, 
 and D. J. Fox, Gaussian, Inc., Wallingford CT, 2013.
 
 ******************************************
 Gaussian 09:  ES64L-G09RevE.01 30-Nov-2015
                 7-May-2018 
 ******************************************
 %Mem=110GB
 %NProcShared=64
 Will use up to   64 processors via shared memory.
 %chk=snap19.chk
 ----------------------------------------------
 #p PBE1PBE/cc-pvDZ force Counterpoise=2 noSymm
 ----------------------------------------------
 1/10=7,30=1,38=1,62=2/1,3;
 2/12=2,15=1,17=6,18=5,40=1/2;
 1/10=7,30=1,38=1,53=2,62=2,63=101/22;
 3/5=16,11=2,16=1,25=1,30=1,71=1,74=-13/1,2,3;
 4//1;
 5/5=2,38=5/2;
 6/7=2,8=2,9=2,10=2,28=1/1;
 7/7=1,29=1,30=1,33=-1/1,2,3,16;
 1/10=7,30=1,53=2,62=2,63=101/22;
 3/5=7,6=11,11=2,16=1,25=1,30=1,71=1,74=-13,82=7/1,2,3;
 4//1;
 5/5=2,38=5/2;
 6/7=2,8=2,9=2,10=2,28=1/1;
 7/7=1,29=1,30=1,33=-1/1,2,3,16;
 1/10=7,30=1,53=2,62=2,63=101/22(-5);
 7/9=1,29=1,44=-1/16;
 1/10=7,30=1,62=2/3;
 99//99;
 Leave Link    1 at Mon May  7 23:19:28 2018, MaxMem= 14763950080 cpu:         6.0
 (Enter /cm/shared/gaussian/g09.e01/intel64-sandybridge/g09/l101.exe)
 ---------------------------------------
 forces on chloride comput - NWATER: 128
 ---------------------------------------
 Symbolic Z-matrix:
 Charge = -1 Multiplicity = 1 in supermolecule
 Charge = -1 Multiplicity = 1 in fragment      1.
 Charge =  0 Multiplicity = 1 in fragment      2.
 Br(Fragment=1)        20.       20.       20. 
 O(Fragment=2)         20.97     17.41     18.41 
 H(Fragment=2)         21.37     17.78     17.62 
 H(Fragment=2)         20.84     18.17     18.98 
 O(Fragment=2)         20.71     22.66     21.48 
 H(Fragment=2)         20.82     23.2      20.7 
 H(Fragment=2)         20.17     21.93     21.19 
 O(Fragment=2)         17.28     19.96     18.18 
 H(Fragment=2)         18.01     19.88     18.79 
 H(Fragment=2)         17.02     20.88     18.24 
 O(Fragment=2)         22.84     19.11     21.38 
 H(Fragment=2)         23.25     18.93     20.54 
 H(Fragment=2)         22.       19.51     21.16 
 O(Fragment=2)         19.11     17.71     22.51 
 H(Fragment=2)         19.83     17.1      22.65 
 H(Fragment=2)         19.44     18.33     21.86 
 O(Fragment=2)         21.02     21.43     16.95 
 H(Fragment=2)         20.57     20.98     17.65 
 H(Fragment=2)         20.42     21.38     16.2 
 O(Fragment=2)         17.04     20.75     21.84 
 H(Fragment=2)         17.56     20.68     22.64 
 H(Fragment=2)         17.67     20.94     21.16 
 O(Fragment=2)         18.11     23.21     19.93 
 H(Fragment=2)         18.69     23.02     19.19 
 H(Fragment=2)         17.24     22.96     19.63 
 O(Fragment=2)         21.5      23.77     19.05 
 H(Fragment=2)         21.77     22.85     18.97 
 H(Fragment=2)         22.31     24.27     19. 
 O(Fragment=2)         23.59     21.81     19.3 
 H(Fragment=2)         23.52     20.85     19.28 
 H(Fragment=2)         24.02     22.03     18.47 
 O(Fragment=2)         23.74     18.91     18.8 
 H(Fragment=2)         23.13     18.9      18.06 
 H(Fragment=2)         24.55     18.52     18.45 
 O(Fragment=2)         16.88     17.05     18.67 
 H(Fragment=2)         17.73     16.68     18.44 
 H(Fragment=2)         16.93     17.96     18.37 
 O(Fragment=2)         23.56     21.4      22.97 
 H(Fragment=2)         23.22     20.78     22.33 
 H(Fragment=2)         22.78     21.74     23.41 
 O(Fragment=2)         19.09     21.98     24.11 
 H(Fragment=2)         18.32     22.5      23.9 
 H(Fragment=2)         19.72     22.2      23.43 
 O(Fragment=2)         22.91     16.17     21.35 
 H(Fragment=2)         22.24     15.86     21.96 
 H(Fragment=2)         22.59     17.02     21.05 
 O(Fragment=2)         17.53     15.83     21.48 
 H(Fragment=2)         17.12     16.36     20.8 
 H(Fragment=2)         18.24     16.38     21.82 
 O(Fragment=2)         19.06     15.47     17.8 
 H(Fragment=2)         19.09     14.87     18.55 
 H(Fragment=2)         19.87     15.98     17.86 
 O(Fragment=2)         16.57     18.27     23.9 
 H(Fragment=2)         16.15     17.42     23.83 
 H(Fragment=2)         17.39     18.17     23.4 
 O(Fragment=2)         18.44     24.41     22.2 
 H(Fragment=2)         18.17     24.08     21.35 
 H(Fragment=2)         19.08     25.1      22.01 
 O(Fragment=2)         22.36     24.4      22.64 
 H(Fragment=2)         22.17     24.       23.48 
 H(Fragment=2)         21.81     23.93     22.01 
 O(Fragment=2)         17.33     22.61     16.61 
 H(Fragment=2)         16.6      22.95     17.12 
 H(Fragment=2)         18.08     23.14     16.87 
 O(Fragment=2)         15.62     22.23     19.05 
 H(Fragment=2)         15.01     22.81     18.61 
 H(Fragment=2)         15.13     21.87     19.79 
 O(Fragment=2)         22.79     21.12     14.88 
 H(Fragment=2)         21.99     20.97     14.38 
 H(Fragment=2)         22.5      21.21     15.79 
 O(Fragment=2)         22.72     18.01     16.18 
 H(Fragment=2)         22.24     18.66     15.67 
 H(Fragment=2)         23.62     18.07     15.87 
 O(Fragment=2)         19.45     24.71     16.95 
 H(Fragment=2)         19.78     25.41     16.4 
 H(Fragment=2)         20.15     24.53     17.58 
 O(Fragment=2)         15.16     19.43     16.25 
 H(Fragment=2)         15.67     19.78     15.51 
 H(Fragment=2)         15.73     19.54     17.01 
 O(Fragment=2)         24.65     18.6      23.71 
 H(Fragment=2)         25.34     19.25     23.57 
 H(Fragment=2)         24.19     18.56     22.88 
 O(Fragment=2)         14.25     21.5      21.2 
 H(Fragment=2)         13.88     22.17     21.78 
 H(Fragment=2)         15.08     21.27     21.61 
 O(Fragment=2)         14.26     17.31     20.19 
 H(Fragment=2)         15.14     17.19     20.55 
 H(Fragment=2)         14.36     17.18     19.25 
 O(Fragment=2)         19.29     13.89     19.87 
 H(Fragment=2)         19.8      13.24     20.36 
 H(Fragment=2)         18.91     14.45     20.54 
 O(Fragment=2)         23.99     24.97     19.83 
 H(Fragment=2)         24.87     25.25     20.06 
 H(Fragment=2)         23.74     24.35     20.51 
 O(Fragment=2)         20.69     15.74     23.92 
 H(Fragment=2)         21.42     15.89     24.51 
 H(Fragment=2)         19.91     15.79     24.48 
 O(Fragment=2)         18.94     22.5      14.32 
 H(Fragment=2)         18.26     22.48     14.99 
 H(Fragment=2)         18.76     23.29     13.81 
 O(Fragment=2)         25.25     16.01     19.5 
 H(Fragment=2)         24.55     16.02     20.15 
 H(Fragment=2)         26.02     15.72     19.97 
 O(Fragment=2)         20.4      24.06     25.49 
 H(Fragment=2)         19.71     24.71     25.62 
 H(Fragment=2)         19.94     23.27     25.2 
 O(Fragment=2)         21.34     19.95     26.07 
 H(Fragment=2)         20.45     19.63     26.2 
 H(Fragment=2)         21.48     20.56     26.78 
 O(Fragment=2)         18.5      21.33     26.94 
 H(Fragment=2)         18.18     22.23     26.96 
 H(Fragment=2)         18.6      21.12     26.01 
 O(Fragment=2)         13.18     19.74     19.31 
 H(Fragment=2)         13.05     20.06     20.2 
 H(Fragment=2)         13.71     18.95     19.41 
 O(Fragment=2)         21.31     13.91     16.65 
 H(Fragment=2)         21.89     14.27     15.98 
 H(Fragment=2)         20.53     14.48     16.62 
 O(Fragment=2)         15.97     25.55     22.81 
 H(Fragment=2)         16.28     26.41     23.06 
 H(Fragment=2)         16.76     25.06     22.58 
 O(Fragment=2)         15.65     15.45     23.48 
 H(Fragment=2)         15.41     14.56     23.73 
 H(Fragment=2)         16.25     15.34     22.74 
 O(Fragment=2)         17.27     26.24     17.38 
 H(Fragment=2)         17.55     26.31     18.29 
 H(Fragment=2)         17.75     25.49     17.03 
 O(Fragment=2)         15.21     19.9      25.71 
 H(Fragment=2)         14.3      19.6      25.71 
 H(Fragment=2)         15.62     19.41     25. 
 O(Fragment=2)         21.71     12.7      20.9 
 H(Fragment=2)         21.33     12.48     21.76 
 H(Fragment=2)         21.91     13.63     20.96 
 O(Fragment=2)         15.86     16.74     14.68 
 H(Fragment=2)         16.45     16.13     14.23 
 H(Fragment=2)         16.13     16.7      15.6 
 O(Fragment=2)         13.78     22.       16.25 
 H(Fragment=2)         14.31     21.3      16.62 
 H(Fragment=2)         13.39     22.43     17.01 
 O(Fragment=2)         24.04     14.5      17.6 
 H(Fragment=2)         23.09     14.54     17.5 
 H(Fragment=2)         24.22     14.92     18.44 
 O(Fragment=2)         16.62     14.24     16.33 
 H(Fragment=2)         16.84     13.31     16.41 
 H(Fragment=2)         17.38     14.7      16.7 
 O(Fragment=2)         25.78     22.18     24.58 
 H(Fragment=2)         25.23     22.04     25.35 
 H(Fragment=2)         25.19     22.05     23.84 
 O(Fragment=2)         20.58     20.89     13.16 
 H(Fragment=2)         19.86     21.48     13.36 
 H(Fragment=2)         21.16     21.4      12.6 
 O(Fragment=2)         19.66     27.03     21.69 
 H(Fragment=2)         20.4      26.7      21.17 
 H(Fragment=2)         19.99     27.85     22.07 
 O(Fragment=2)         25.2      22.77     16.55 
 H(Fragment=2)         25.79     23.49     16.35 
 H(Fragment=2)         25.78     22.03     16.74 
 O(Fragment=2)         18.68     15.85     25.67 
 H(Fragment=2)         17.98     16.48     25.51 
 H(Fragment=2)         18.23     15.04     25.9 
 O(Fragment=2)         16.51     19.46     13.69 
 H(Fragment=2)         16.72     19.16     12.8 
 H(Fragment=2)         16.53     18.66     14.22 
 O(Fragment=2)         26.19     17.98     17.76 
 H(Fragment=2)         26.18     17.36     18.49 
 H(Fragment=2)         27.09     17.95     17.44 
 O(Fragment=2)         23.32     24.17     15.02 
 H(Fragment=2)         23.84     23.46     15.39 
 H(Fragment=2)         23.24     24.8      15.73 
 O(Fragment=2)         15.24     24.35     17.45 
 H(Fragment=2)         15.64     25.2      17.6 
 H(Fragment=2)         14.3      24.53     17.39 
 O(Fragment=2)         23.69     18.11     26.1 
 H(Fragment=2)         23.05     18.81     26.16 
 H(Fragment=2)         24.17     18.29     25.29 
 O(Fragment=2)         20.1      13.08     23.12 
 H(Fragment=2)         20.35     13.96     23.42 
 H(Fragment=2)         19.15     13.12     23.04 
 O(Fragment=2)         25.22     18.12     15.4 
 H(Fragment=2)         25.5      17.86     16.28 
 H(Fragment=2)         26.04     18.33     14.95 
 O(Fragment=2)         27.05     21.02     17.81 
 H(Fragment=2)         27.08     21.19     18.75 
 H(Fragment=2)         26.68     20.14     17.74 
 O(Fragment=2)         21.81     15.61     14.55 
 H(Fragment=2)         22.52     15.26     14.02 
 H(Fragment=2)         21.57     16.43     14.12 
 O(Fragment=2)         20.81     18.2      13.03 
 H(Fragment=2)         20.45     17.85     12.23 
 H(Fragment=2)         20.58     19.13     13.01 
 O(Fragment=2)         17.31     26.88     20.12 
 H(Fragment=2)         18.11     26.79     20.65 
 H(Fragment=2)         16.6      26.62     20.71 
 O(Fragment=2)         15.06     14.21     20.07 
 H(Fragment=2)         15.93     13.9      20.32 
 H(Fragment=2)         15.21     14.81     19.35 
 O(Fragment=2)         26.18     23.44     21.53 
 H(Fragment=2)         25.97     24.23     22.04 
 H(Fragment=2)         26.04     23.71     20.62 
 O(Fragment=2)         23.76     15.06     24.53 
 H(Fragment=2)         24.14     15.69     23.92 
 H(Fragment=2)         24.49     14.5      24.78 
 O(Fragment=2)         23.17     27.07     22.16 
 H(Fragment=2)         22.98     26.13     22.21 
 H(Fragment=2)         22.43     27.44     21.69 
 O(Fragment=2)         14.4      15.91     17.72 
 H(Fragment=2)         15.1      15.48     17.23 
 H(Fragment=2)         13.84     16.29     17.04 
 O(Fragment=2)         18.92     26.12     24.61 
 H(Fragment=2)         18.55     26.09     23.73 
 H(Fragment=2)         18.62     26.96     24.97 
 O(Fragment=2)         27.49     21.08     20.77 
 H(Fragment=2)         27.01     21.8      21.17 
 H(Fragment=2)         28.22     20.92     21.37 
 O(Fragment=2)         25.16     24.91     23.5 
 H(Fragment=2)         24.22     25.07     23.54 
 H(Fragment=2)         25.28     24.05     23.91 
 O(Fragment=2)         21.86     27.64     19.8 
 H(Fragment=2)         21.67     28.47     19.37 
 H(Fragment=2)         22.28     27.11     19.12 
 O(Fragment=2)         15.36     23.05     25.86 
 H(Fragment=2)         15.81     23.16     26.69 
 H(Fragment=2)         15.47     22.12     25.65 
 O(Fragment=2)         25.2      20.82     13.23 
 H(Fragment=2)         25.75     20.3      13.82 
 H(Fragment=2)         24.41     20.99     13.74 
 O(Fragment=2)         21.61     23.6      12.88 
 H(Fragment=2)         22.19     23.84     13.6 
 H(Fragment=2)         20.73     23.82     13.19 
 O(Fragment=2)         14.11     25.52     20.7 
 H(Fragment=2)         13.3      25.01     20.63 
 H(Fragment=2)         14.44     25.31     21.58 
 O(Fragment=2)         21.95     11.83     18.59 
 H(Fragment=2)         21.96     12.2      19.47 
 H(Fragment=2)         21.7      12.56     18.02 
 O(Fragment=2)         13.44     23.41     22.95 
 H(Fragment=2)         13.08     23.36     23.84 
 H(Fragment=2)         13.98     24.19     22.96 
 O(Fragment=2)         15.18     24.47     14.58 
 H(Fragment=2)         15.89     24.76     15.16 
 H(Fragment=2)         14.88     23.65     14.97 
 O(Fragment=2)         12.14     17.07     21.88 
 H(Fragment=2)         12.74     16.99     21.13 
 H(Fragment=2)         11.37     17.52     21.52 
 O(Fragment=2)         15.87     21.71     12.45 
 H(Fragment=2)         16.14     21.11     13.15 
 H(Fragment=2)         15.77     21.16     11.68 
 O(Fragment=2)         20.71     27.27     16.48 
 H(Fragment=2)         20.41     27.93     17.1 
 H(Fragment=2)         21.66     27.21     16.63 
 O(Fragment=2)         13.43     18.19     13.99 
 H(Fragment=2)         14.06     18.15     14.71 
 H(Fragment=2)         13.59     17.38     13.5 
 O(Fragment=2)         20.86     14.88     26.99 
 H(Fragment=2)         20.05     15.23     26.63 
 H(Fragment=2)         20.7      14.82     27.93 
 O(Fragment=2)         17.51     13.01     23.49 
 H(Fragment=2)         17.7      13.21     24.41 
 H(Fragment=2)         16.56     12.86     23.48 
 O(Fragment=2)         12.06     20.01     15.54 
 H(Fragment=2)         12.11     19.43     14.78 
 H(Fragment=2)         12.97     20.19     15.77 
 O(Fragment=2)         22.54     24.9      26.94 
 H(Fragment=2)         22.14     24.57     27.75 
 H(Fragment=2)         21.81     24.94     26.32 
 O(Fragment=2)         29.04     18.91     18.94 
 H(Fragment=2)         29.54     19.68     19.22 
 H(Fragment=2)         28.18     19.03     19.34 
 O(Fragment=2)         12.54     23.25     18.35 
 H(Fragment=2)         12.27     23.36     19.26 
 H(Fragment=2)         12.5      24.13     17.98 
 O(Fragment=2)         26.28     14.4      16.25 
 H(Fragment=2)         25.39     14.52     16.57 
 H(Fragment=2)         26.3      14.86     15.41 
 O(Fragment=2)         27.35     20.66     15.02 
 H(Fragment=2)         27.24     21.13     15.84 
 H(Fragment=2)         28.29     20.49     14.96 
 O(Fragment=2)         16.27     19.26     28.13 
 H(Fragment=2)         15.82     19.33     27.29 
 H(Fragment=2)         16.14     20.11     28.54 
 O(Fragment=2)         24.34     22.77     26.8 
 H(Fragment=2)         24.25     22.26     27.6 
 H(Fragment=2)         23.79     23.54     26.93 
 O(Fragment=2)         12.89     13.99     21.9 
 H(Fragment=2)         13.51     14.59     21.5 
 H(Fragment=2)         12.82     14.29     22.81 
 O(Fragment=2)         27.37     15.64     21.63 
 H(Fragment=2)         27.18     16.01     22.5 
 H(Fragment=2)         28.17     16.09     21.35 
 O(Fragment=2)         13.12     17.27     24.79 
 H(Fragment=2)         13.59     16.45     24.59 
 H(Fragment=2)         12.6      17.44     24. 
 O(Fragment=2)         11.16     18.03     17.58 
 H(Fragment=2)         11.88     18.54     17.21 
 H(Fragment=2)         11.37     17.97     18.51 
 O(Fragment=2)         10.62     21.08     18.69 
 H(Fragment=2)         10.96     21.97     18.55 
 H(Fragment=2)         11.4      20.53     18.69 
 O(Fragment=2)         14.64     27.32     18.45 
 H(Fragment=2)         14.81     28.26     18.51 
 H(Fragment=2)         14.8      26.98     19.33 
 O(Fragment=2)         19.11     25.21     12.88 
 H(Fragment=2)         18.72     25.77     13.55 
 H(Fragment=2)         19.71     25.78     12.4 
 O(Fragment=2)         14.9      15.56     26.79 
 H(Fragment=2)         14.11     16.05     27.01 
 H(Fragment=2)         15.02     15.71     25.85 
 O(Fragment=2)         11.49     24.04     20.83 
 H(Fragment=2)         12.11     23.67     21.45 
 H(Fragment=2)         11.13     24.81     21.28 
 O(Fragment=2)         23.52     27.48     16.89 
 H(Fragment=2)         23.31     28.08     16.17 
 H(Fragment=2)         24.45     27.62     17.05 
 O(Fragment=2)         19.1      21.65     29.56 
 H(Fragment=2)         18.79     21.75     28.66 
 H(Fragment=2)         19.83     21.04     29.49 
 O(Fragment=2)         24.7      15.08     27.14 
 H(Fragment=2)         24.85     14.15     27.02 
 H(Fragment=2)         24.08     15.32     26.45 
 O(Fragment=2)         23.28     17.35     28.72 
 H(Fragment=2)         23.51     17.32     27.79 
 H(Fragment=2)         24.11     17.56     29.16 
 O(Fragment=2)         26.57     26.13     20.41 
 H(Fragment=2)         26.98     26.53     21.18 
 H(Fragment=2)         27.23     25.54     20.06 
 O(Fragment=2)         18.52     13.09     13.45 
 H(Fragment=2)         18.78     12.27     13.02 
 H(Fragment=2)         19.19     13.24     14.11 
 O(Fragment=2)         26.68     15.73     24.31 
 H(Fragment=2)         27.07     16.18     25.05 
 H(Fragment=2)         27.13     14.89     24.28 
 O(Fragment=2)         25.17     12.15     18.76 
 H(Fragment=2)         25.8      12.85     18.61 
 H(Fragment=2)         24.44     12.35     18.17 
 O(Fragment=2)         25.93     17.83     27.72 
 H(Fragment=2)         25.27     17.87     27.02 
 H(Fragment=2)         25.91     16.91     28.01 
 O(Fragment=2)         17.25     23.52     27.89 
 H(Fragment=2)         16.81     24.38     27.96 
 H(Fragment=2)         18.17     23.71     28.04 
 O(Fragment=2)         13.51     12.58     18.52 
 H(Fragment=2)         12.66     13.02     18.41 
 H(Fragment=2)         14.08     13.24     18.9 
 O(Fragment=2)         17.38     23.57     11.4 
 H(Fragment=2)         16.93     22.99     12. 
 H(Fragment=2)         17.75     24.26     11.96 
 O(Fragment=2)         17.39     26.52     14.21 
 H(Fragment=2)         16.72     26.32     13.55 
 H(Fragment=2)         16.91     26.95     14.91 
 O(Fragment=2)         12.71     23.66     14.28 
 H(Fragment=2)         12.09     23.21     13.7 
 H(Fragment=2)         13.2      22.96     14.7 
 O(Fragment=2)         21.32     19.65     29.62 
 H(Fragment=2)         21.07     19.04     30.33 
 H(Fragment=2)         21.65     19.08     28.93 
 O(Fragment=2)         24.35     11.35     21.75 
 H(Fragment=2)         24.78     10.67     21.23 
 H(Fragment=2)         24.54     12.17     21.29 
 O(Fragment=2)         17.61     28.27     23.68 
 H(Fragment=2)         16.98     28.98     23.55 
 H(Fragment=2)         18.32     28.46     23.07 
 O(Fragment=2)         24.83     28.84     20.57 
 H(Fragment=2)         24.53     27.97     20.34 
 H(Fragment=2)         25.72     28.89     20.22 
 O(Fragment=2)         17.73     16.68     28.45 
 H(Fragment=2)         18.62     16.85     28.76 
 H(Fragment=2)         17.31     17.53     28.43 
 O(Fragment=2)         19.23     10.51     22.08 
 H(Fragment=2)         19.14     11.25     22.68 
 H(Fragment=2)         18.33     10.28     21.85 
 O(Fragment=2)         18.69     10.79     18.82 
 H(Fragment=2)         18.32     10.95     19.69 
 H(Fragment=2)         18.06     11.18     18.21 
 O(Fragment=2)         12.84     24.       25.54 
 H(Fragment=2)         12.57     24.33     26.4 
 H(Fragment=2)         13.73     23.68     25.68 
 O(Fragment=2)         16.34     11.39     20.73 
 H(Fragment=2)         15.64     11.91     21.14 
 H(Fragment=2)         15.96     10.53     20.59 
 O(Fragment=2)         10.82     20.61     22.95 
 H(Fragment=2)         11.44     20.26     23.58 
 H(Fragment=2)         10.3      19.86     22.67 
 O(Fragment=2)         12.29     19.99     25.82 
 H(Fragment=2)         12.4      19.22     25.28 
 H(Fragment=2)         11.47     19.85     26.29 
 
 NAtoms=    385 NQM=      385 NQMF=       0 NMMI=      0 NMMIF=      0
                NMic=       0 NMicF=      0.
                    Isotopes and Nuclear Properties:
 (Nuclear quadrupole moments (NQMom) in fm**2, nuclear magnetic moments (NMagM)
  in nuclear magnetons)

  Atom         1           2           3           4           5           6           7           8           9          10
 IAtWgt=          79          16           1           1          16           1           1          16           1           1
 AtmWgt=  78.9183361  15.9949146   1.0078250   1.0078250  15.9949146   1.0078250   1.0078250  15.9949146   1.0078250   1.0078250
 NucSpn=           3           0           1           1           0           1           1           0           1           1
 AtZEff=   0.0000000   0.0000000   0.0000000   0.0000000   0.0000000   0.0000000   0.0000000   0.0000000   0.0000000   0.0000000
 NQMom=   31.3000000   0.0000000   0.0000000   0.0000000   0.0000000   0.0000000   0.0000000   0.0000000   0.0000000   0.0000000
 NMagM=    2.1063990   0.0000000   2.7928460   2.7928460   0.0000000   2.7928460   2.7928460   0.0000000   2.7928460   2.7928460
 AtZNuc=  35.0000000   8.0000000   1.0000000   1.0000000   8.0000000   1.0000000   1.0000000   8.0000000   1.0000000   1.0000000

  Atom        11          12          13          14          15          16          17          18          19          20
 IAtWgt=          16           1           1          16           1           1          16           1           1          16
 AtmWgt=  15.9949146   1.0078250   1.0078250  15.9949146   1.0078250   1.0078250  15.9949146   1.0078250   1.0078250  15.9949146
 NucSpn=           0           1           1           0           1           1           0           1           1           0
 AtZEff=   0.0000000   0.0000000   0.0000000   0.0000000   0.0000000   0.0000000   0.0000000   0.0000000   0.0000000   0.0000000
 NQMom=    0.0000000   0.0000000   0.0000000   0.0000000   0.0000000   0.0000000   0.0000000   0.0000000   0.0000000   0.0000000
 NMagM=    0.0000000   2.7928460   2.7928460   0.0000000   2.7928460   2.7928460   0.0000000   2.7928460   2.7928460   0.0000000
 AtZNuc=   8.0000000   1.0000000   1.0000000   8.0000000   1.0000000   1.0000000   8.0000000   1.0000000   1.0000000   8.0000000

  Atom        21          22          23          24          25          26          27          28          29          30
 IAtWgt=           1           1          16           1           1          16           1           1          16           1
 AtmWgt=   1.0078250   1.0078250  15.9949146   1.0078250   1.0078250  15.9949146   1.0078250   1.0078250  15.9949146   1.0078250
 NucSpn=           1           1           0           1           1           0           1           1           0           1
 AtZEff=   0.0000000   0.0000000   0.0000000   0.0000000   0.0000000   0.0000000   0.0000000   0.0000000   0.0000000   0.0000000
 NQMom=    0.0000000   0.0000000   0.0000000   0.0000000   0.0000000   0.0000000   0.0000000   0.0000000   0.0000000   0.0000000
 NMagM=    2.7928460   2.7928460   0.0000000   2.7928460   2.7928460   0.0000000   2.7928460   2.7928460   0.0000000   2.7928460
 AtZNuc=   1.0000000   1.0000000   8.0000000   1.0000000   1.0000000   8.0000000   1.0000000   1.0000000   8.0000000   1.0000000

  Atom        31          32          33          34          35          36          37          38          39          40
 IAtWgt=           1          16           1           1          16           1           1          16           1           1
 AtmWgt=   1.0078250  15.9949146   1.0078250   1.0078250  15.9949146   1.0078250   1.0078250  15.9949146   1.0078250   1.0078250
 NucSpn=           1           0           1           1           0           1           1           0           1           1
 AtZEff=   0.0000000   0.0000000   0.0000000   0.0000000   0.0000000   0.0000000   0.0000000   0.0000000   0.0000000   0.0000000
 NQMom=    0.0000000   0.0000000   0.0000000   0.0000000   0.0000000   0.0000000   0.0000000   0.0000000   0.0000000   0.0000000
 NMagM=    2.7928460   0.0000000   2.7928460   2.7928460   0.0000000   2.7928460   2.7928460   0.0000000   2.7928460   2.7928460
 AtZNuc=   1.0000000   8.0000000   1.0000000   1.0000000   8.0000000   1.0000000   1.0000000   8.0000000   1.0000000   1.0000000

  Atom        41          42          43          44          45          46          47          48          49          50
 IAtWgt=          16           1           1          16           1           1          16           1           1          16
 AtmWgt=  15.9949146   1.0078250   1.0078250  15.9949146   1.0078250   1.0078250  15.9949146   1.0078250   1.0078250  15.9949146
 NucSpn=           0           1           1           0           1           1           0           1           1           0
 AtZEff=   0.0000000   0.0000000   0.0000000   0.0000000   0.0000000   0.0000000   0.0000000   0.0000000   0.0000000   0.0000000
 NQMom=    0.0000000   0.0000000   0.0000000   0.0000000   0.0000000   0.0000000   0.0000000   0.0000000   0.0000000   0.0000000
 NMagM=    0.0000000   2.7928460   2.7928460   0.0000000   2.7928460   2.7928460   0.0000000   2.7928460   2.7928460   0.0000000
 AtZNuc=   8.0000000   1.0000000   1.0000000   8.0000000   1.0000000   1.0000000   8.0000000   1.0000000   1.0000000   8.0000000

  Atom        51          52          53          54          55          56          57          58          59          60
 IAtWgt=           1           1          16           1           1          16           1           1          16           1
 AtmWgt=   1.0078250   1.0078250  15.9949146   1.0078250   1.0078250  15.9949146   1.0078250   1.0078250  15.9949146   1.0078250
 NucSpn=           1           1           0           1           1           0           1           1           0           1
 AtZEff=   0.0000000   0.0000000   0.0000000   0.0000000   0.0000000   0.0000000   0.0000000   0.0000000   0.0000000   0.0000000
 NQMom=    0.0000000   0.0000000   0.0000000   0.0000000   0.0000000   0.0000000   0.0000000   0.0000000   0.0000000   0.0000000
 NMagM=    2.7928460   2.7928460   0.0000000   2.7928460   2.7928460   0.0000000   2.7928460   2.7928460   0.0000000   2.7928460
 AtZNuc=   1.0000000   1.0000000   8.0000000   1.0000000   1.0000000   8.0000000   1.0000000   1.0000000   8.0000000   1.0000000

  Atom        61          62          63          64          65          66          67          68          69          70
 IAtWgt=           1          16           1           1          16           1           1          16           1           1
 AtmWgt=   1.0078250  15.9949146   1.0078250   1.0078250  15.9949146   1.0078250   1.0078250  15.9949146   1.0078250   1.0078250
 NucSpn=           1           0           1           1           0           1           1           0           1           1
 AtZEff=   0.0000000   0.0000000   0.0000000   0.0000000   0.0000000   0.0000000   0.0000000   0.0000000   0.0000000   0.0000000
 NQMom=    0.0000000   0.0000000   0.0000000   0.0000000   0.0000000   0.0000000   0.0000000   0.0000000   0.0000000   0.0000000
 NMagM=    2.7928460   0.0000000   2.7928460   2.7928460   0.0000000   2.7928460   2.7928460   0.0000000   2.7928460   2.7928460
 AtZNuc=   1.0000000   8.0000000   1.0000000   1.0000000   8.0000000   1.0000000   1.0000000   8.0000000   1.0000000   1.0000000

  Atom        71          72          73          74          75          76          77          78          79          80
 IAtWgt=          16           1           1          16           1           1          16           1           1          16
 AtmWgt=  15.9949146   1.0078250   1.0078250  15.9949146   1.0078250   1.0078250  15.9949146   1.0078250   1.0078250  15.9949146
 NucSpn=           0           1           1           0           1           1           0           1           1           0
 AtZEff=   0.0000000   0.0000000   0.0000000   0.0000000   0.0000000   0.0000000   0.0000000   0.0000000   0.0000000   0.0000000
 NQMom=    0.0000000   0.0000000   0.0000000   0.0000000   0.0000000   0.0000000   0.0000000   0.0000000   0.0000000   0.0000000
 NMagM=    0.0000000   2.7928460   2.7928460   0.0000000   2.7928460   2.7928460   0.0000000   2.7928460   2.7928460   0.0000000
 AtZNuc=   8.0000000   1.0000000   1.0000000   8.0000000   1.0000000   1.0000000   8.0000000   1.0000000   1.0000000   8.0000000

  Atom        81          82          83          84          85          86          87          88          89          90
 IAtWgt=           1           1          16           1           1          16           1           1          16           1
 AtmWgt=   1.0078250   1.0078250  15.9949146   1.0078250   1.0078250  15.9949146   1.0078250   1.0078250  15.9949146   1.0078250
 NucSpn=           1           1           0           1           1           0           1           1           0           1
 AtZEff=   0.0000000   0.0000000   0.0000000   0.0000000   0.0000000   0.0000000   0.0000000   0.0000000   0.0000000   0.0000000
 NQMom=    0.0000000   0.0000000   0.0000000   0.0000000   0.0000000   0.0000000   0.0000000   0.0000000   0.0000000   0.0000000
 NMagM=    2.7928460   2.7928460   0.0000000   2.7928460   2.7928460   0.0000000   2.7928460   2.7928460   0.0000000   2.7928460
 AtZNuc=   1.0000000   1.0000000   8.0000000   1.0000000   1.0000000   8.0000000   1.0000000   1.0000000   8.0000000   1.0000000

  Atom        91          92          93          94          95          96          97          98          99         100
 IAtWgt=           1          16           1           1          16           1           1          16           1           1
 AtmWgt=   1.0078250  15.9949146   1.0078250   1.0078250  15.9949146   1.0078250   1.0078250  15.9949146   1.0078250   1.0078250
 NucSpn=           1           0           1           1           0           1           1           0           1           1
 AtZEff=   0.0000000   0.0000000   0.0000000   0.0000000   0.0000000   0.0000000   0.0000000   0.0000000   0.0000000   0.0000000
 NQMom=    0.0000000   0.0000000   0.0000000   0.0000000   0.0000000   0.0000000   0.0000000   0.0000000   0.0000000   0.0000000
 NMagM=    2.7928460   0.0000000   2.7928460   2.7928460   0.0000000   2.7928460   2.7928460   0.0000000   2.7928460   2.7928460
 AtZNuc=   1.0000000   8.0000000   1.0000000   1.0000000   8.0000000   1.0000000   1.0000000   8.0000000   1.0000000   1.0000000

  Atom       101         102         103         104         105         106         107         108         109         110
 IAtWgt=          16           1           1          16           1           1          16           1           1          16
 AtmWgt=  15.9949146   1.0078250   1.0078250  15.9949146   1.0078250   1.0078250  15.9949146   1.0078250   1.0078250  15.9949146
 NucSpn=           0           1           1           0           1           1           0           1           1           0
 AtZEff=   0.0000000   0.0000000   0.0000000   0.0000000   0.0000000   0.0000000   0.0000000   0.0000000   0.0000000   0.0000000
 NQMom=    0.0000000   0.0000000   0.0000000   0.0000000   0.0000000   0.0000000   0.0000000   0.0000000   0.0000000   0.0000000
 NMagM=    0.0000000   2.7928460   2.7928460   0.0000000   2.7928460   2.7928460   0.0000000   2.7928460   2.7928460   0.0000000
 AtZNuc=   8.0000000   1.0000000   1.0000000   8.0000000   1.0000000   1.0000000   8.0000000   1.0000000   1.0000000   8.0000000

  Atom       111         112         113         114         115         116         117         118         119         120
 IAtWgt=           1           1          16           1           1          16           1           1          16           1
 AtmWgt=   1.0078250   1.0078250  15.9949146   1.0078250   1.0078250  15.9949146   1.0078250   1.0078250  15.9949146   1.0078250
 NucSpn=           1           1           0           1           1           0           1           1           0           1
 AtZEff=   0.0000000   0.0000000   0.0000000   0.0000000   0.0000000   0.0000000   0.0000000   0.0000000   0.0000000   0.0000000
 NQMom=    0.0000000   0.0000000   0.0000000   0.0000000   0.0000000   0.0000000   0.0000000   0.0000000   0.0000000   0.0000000
 NMagM=    2.7928460   2.7928460   0.0000000   2.7928460   2.7928460   0.0000000   2.7928460   2.7928460   0.0000000   2.7928460
 AtZNuc=   1.0000000   1.0000000   8.0000000   1.0000000   1.0000000   8.0000000   1.0000000   1.0000000   8.0000000   1.0000000

  Atom       121         122         123         124         125         126         127         128         129         130
 IAtWgt=           1          16           1           1          16           1           1          16           1           1
 AtmWgt=   1.0078250  15.9949146   1.0078250   1.0078250  15.9949146   1.0078250   1.0078250  15.9949146   1.0078250   1.0078250
 NucSpn=           1           0           1           1           0           1           1           0           1           1
 AtZEff=   0.0000000   0.0000000   0.0000000   0.0000000   0.0000000   0.0000000   0.0000000   0.0000000   0.0000000   0.0000000
 NQMom=    0.0000000   0.0000000   0.0000000   0.0000000   0.0000000   0.0000000   0.0000000   0.0000000   0.0000000   0.0000000
 NMagM=    2.7928460   0.0000000   2.7928460   2.7928460   0.0000000   2.7928460   2.7928460   0.0000000   2.7928460   2.7928460
 AtZNuc=   1.0000000   8.0000000   1.0000000   1.0000000   8.0000000   1.0000000   1.0000000   8.0000000   1.0000000   1.0000000

  Atom       131         132         133         134         135         136         137         138         139         140
 IAtWgt=          16           1           1          16           1           1          16           1           1          16
 AtmWgt=  15.9949146   1.0078250   1.0078250  15.9949146   1.0078250   1.0078250  15.9949146   1.0078250   1.0078250  15.9949146
 NucSpn=           0           1           1           0           1           1           0           1           1           0
 AtZEff=   0.0000000   0.0000000   0.0000000   0.0000000   0.0000000   0.0000000   0.0000000   0.0000000   0.0000000   0.0000000
 NQMom=    0.0000000   0.0000000   0.0000000   0.0000000   0.0000000   0.0000000   0.0000000   0.0000000   0.0000000   0.0000000
 NMagM=    0.0000000   2.7928460   2.7928460   0.0000000   2.7928460   2.7928460   0.0000000   2.7928460   2.7928460   0.0000000
 AtZNuc=   8.0000000   1.0000000   1.0000000   8.0000000   1.0000000   1.0000000   8.0000000   1.0000000   1.0000000   8.0000000

  Atom       141         142         143         144         145         146         147         148         149         150
 IAtWgt=           1           1          16           1           1          16           1           1          16           1
 AtmWgt=   1.0078250   1.0078250  15.9949146   1.0078250   1.0078250  15.9949146   1.0078250   1.0078250  15.9949146   1.0078250
 NucSpn=           1           1           0           1           1           0           1           1           0           1
 AtZEff=   0.0000000   0.0000000   0.0000000   0.0000000   0.0000000   0.0000000   0.0000000   0.0000000   0.0000000   0.0000000
 NQMom=    0.0000000   0.0000000   0.0000000   0.0000000   0.0000000   0.0000000   0.0000000   0.0000000   0.0000000   0.0000000
 NMagM=    2.7928460   2.7928460   0.0000000   2.7928460   2.7928460   0.0000000   2.7928460   2.7928460   0.0000000   2.7928460
 AtZNuc=   1.0000000   1.0000000   8.0000000   1.0000000   1.0000000   8.0000000   1.0000000   1.0000000   8.0000000   1.0000000

  Atom       151         152         153         154         155         156         157         158         159         160
 IAtWgt=           1          16           1           1          16           1           1          16           1           1
 AtmWgt=   1.0078250  15.9949146   1.0078250   1.0078250  15.9949146   1.0078250   1.0078250  15.9949146   1.0078250   1.0078250
 NucSpn=           1           0           1           1           0           1           1           0           1           1
 AtZEff=   0.0000000   0.0000000   0.0000000   0.0000000   0.0000000   0.0000000   0.0000000   0.0000000   0.0000000   0.0000000
 NQMom=    0.0000000   0.0000000   0.0000000   0.0000000   0.0000000   0.0000000   0.0000000   0.0000000   0.0000000   0.0000000
 NMagM=    2.7928460   0.0000000   2.7928460   2.7928460   0.0000000   2.7928460   2.7928460   0.0000000   2.7928460   2.7928460
 AtZNuc=   1.0000000   8.0000000   1.0000000   1.0000000   8.0000000   1.0000000   1.0000000   8.0000000   1.0000000   1.0000000

  Atom       161         162         163         164         165         166         167         168         169         170
 IAtWgt=          16           1           1          16           1           1          16           1           1          16
 AtmWgt=  15.9949146   1.0078250   1.0078250  15.9949146   1.0078250   1.0078250  15.9949146   1.0078250   1.0078250  15.9949146
 NucSpn=           0           1           1           0           1           1           0           1           1           0
 AtZEff=   0.0000000   0.0000000   0.0000000   0.0000000   0.0000000   0.0000000   0.0000000   0.0000000   0.0000000   0.0000000
 NQMom=    0.0000000   0.0000000   0.0000000   0.0000000   0.0000000   0.0000000   0.0000000   0.0000000   0.0000000   0.0000000
 NMagM=    0.0000000   2.7928460   2.7928460   0.0000000   2.7928460   2.7928460   0.0000000   2.7928460   2.7928460   0.0000000
 AtZNuc=   8.0000000   1.0000000   1.0000000   8.0000000   1.0000000   1.0000000   8.0000000   1.0000000   1.0000000   8.0000000

  Atom       171         172         173         174         175         176         177         178         179         180
 IAtWgt=           1           1          16           1           1          16           1           1          16           1
 AtmWgt=   1.0078250   1.0078250  15.9949146   1.0078250   1.0078250  15.9949146   1.0078250   1.0078250  15.9949146   1.0078250
 NucSpn=           1           1           0           1           1           0           1           1           0           1
 AtZEff=   0.0000000   0.0000000   0.0000000   0.0000000   0.0000000   0.0000000   0.0000000   0.0000000   0.0000000   0.0000000
 NQMom=    0.0000000   0.0000000   0.0000000   0.0000000   0.0000000   0.0000000   0.0000000   0.0000000   0.0000000   0.0000000
 NMagM=    2.7928460   2.7928460   0.0000000   2.7928460   2.7928460   0.0000000   2.7928460   2.7928460   0.0000000   2.7928460
 AtZNuc=   1.0000000   1.0000000   8.0000000   1.0000000   1.0000000   8.0000000   1.0000000   1.0000000   8.0000000   1.0000000

  Atom       181         182         183         184         185         186         187         188         189         190
 IAtWgt=           1          16           1           1          16           1           1          16           1           1
 AtmWgt=   1.0078250  15.9949146   1.0078250   1.0078250  15.9949146   1.0078250   1.0078250  15.9949146   1.0078250   1.0078250
 NucSpn=           1           0           1           1           0           1           1           0           1           1
 AtZEff=   0.0000000   0.0000000   0.0000000   0.0000000   0.0000000   0.0000000   0.0000000   0.0000000   0.0000000   0.0000000
 NQMom=    0.0000000   0.0000000   0.0000000   0.0000000   0.0000000   0.0000000   0.0000000   0.0000000   0.0000000   0.0000000
 NMagM=    2.7928460   0.0000000   2.7928460   2.7928460   0.0000000   2.7928460   2.7928460   0.0000000   2.7928460   2.7928460
 AtZNuc=   1.0000000   8.0000000   1.0000000   1.0000000   8.0000000   1.0000000   1.0000000   8.0000000   1.0000000   1.0000000

  Atom       191         192         193         194         195         196         197         198         199         200
 IAtWgt=          16           1           1          16           1           1          16           1           1          16
 AtmWgt=  15.9949146   1.0078250   1.0078250  15.9949146   1.0078250   1.0078250  15.9949146   1.0078250   1.0078250  15.9949146
 NucSpn=           0           1           1           0           1           1           0           1           1           0
 AtZEff=   0.0000000   0.0000000   0.0000000   0.0000000   0.0000000   0.0000000   0.0000000   0.0000000   0.0000000   0.0000000
 NQMom=    0.0000000   0.0000000   0.0000000   0.0000000   0.0000000   0.0000000   0.0000000   0.0000000   0.0000000   0.0000000
 NMagM=    0.0000000   2.7928460   2.7928460   0.0000000   2.7928460   2.7928460   0.0000000   2.7928460   2.7928460   0.0000000
 AtZNuc=   8.0000000   1.0000000   1.0000000   8.0000000   1.0000000   1.0000000   8.0000000   1.0000000   1.0000000   8.0000000

  Atom       201         202         203         204         205         206         207         208         209         210
 IAtWgt=           1           1          16           1           1          16           1           1          16           1
 AtmWgt=   1.0078250   1.0078250  15.9949146   1.0078250   1.0078250  15.9949146   1.0078250   1.0078250  15.9949146   1.0078250
 NucSpn=           1           1           0           1           1           0           1           1           0           1
 AtZEff=   0.0000000   0.0000000   0.0000000   0.0000000   0.0000000   0.0000000   0.0000000   0.0000000   0.0000000   0.0000000
 NQMom=    0.0000000   0.0000000   0.0000000   0.0000000   0.0000000   0.0000000   0.0000000   0.0000000   0.0000000   0.0000000
 NMagM=    2.7928460   2.7928460   0.0000000   2.7928460   2.7928460   0.0000000   2.7928460   2.7928460   0.0000000   2.7928460
 AtZNuc=   1.0000000   1.0000000   8.0000000   1.0000000   1.0000000   8.0000000   1.0000000   1.0000000   8.0000000   1.0000000

  Atom       211         212         213         214         215         216         217         218         219         220
 IAtWgt=           1          16           1           1          16           1           1          16           1           1
 AtmWgt=   1.0078250  15.9949146   1.0078250   1.0078250  15.9949146   1.0078250   1.0078250  15.9949146   1.0078250   1.0078250
 NucSpn=           1           0           1           1           0           1           1           0           1           1
 AtZEff=   0.0000000   0.0000000   0.0000000   0.0000000   0.0000000   0.0000000   0.0000000   0.0000000   0.0000000   0.0000000
 NQMom=    0.0000000   0.0000000   0.0000000   0.0000000   0.0000000   0.0000000   0.0000000   0.0000000   0.0000000   0.0000000
 NMagM=    2.7928460   0.0000000   2.7928460   2.7928460   0.0000000   2.7928460   2.7928460   0.0000000   2.7928460   2.7928460
 AtZNuc=   1.0000000   8.0000000   1.0000000   1.0000000   8.0000000   1.0000000   1.0000000   8.0000000   1.0000000   1.0000000

  Atom       221         222         223         224         225         226         227         228         229         230
 IAtWgt=          16           1           1          16           1           1          16           1           1          16
 AtmWgt=  15.9949146   1.0078250   1.0078250  15.9949146   1.0078250   1.0078250  15.9949146   1.0078250   1.0078250  15.9949146
 NucSpn=           0           1           1           0           1           1           0           1           1           0
 AtZEff=   0.0000000   0.0000000   0.0000000   0.0000000   0.0000000   0.0000000   0.0000000   0.0000000   0.0000000   0.0000000
 NQMom=    0.0000000   0.0000000   0.0000000   0.0000000   0.0000000   0.0000000   0.0000000   0.0000000   0.0000000   0.0000000
 NMagM=    0.0000000   2.7928460   2.7928460   0.0000000   2.7928460   2.7928460   0.0000000   2.7928460   2.7928460   0.0000000
 AtZNuc=   8.0000000   1.0000000   1.0000000   8.0000000   1.0000000   1.0000000   8.0000000   1.0000000   1.0000000   8.0000000

  Atom       231         232         233         234         235         236         237         238         239         240
 IAtWgt=           1           1          16           1           1          16           1           1          16           1
 AtmWgt=   1.0078250   1.0078250  15.9949146   1.0078250   1.0078250  15.9949146   1.0078250   1.0078250  15.9949146   1.0078250
 NucSpn=           1           1           0           1           1           0           1           1           0           1
 AtZEff=   0.0000000   0.0000000   0.0000000   0.0000000   0.0000000   0.0000000   0.0000000   0.0000000   0.0000000   0.0000000
 NQMom=    0.0000000   0.0000000   0.0000000   0.0000000   0.0000000   0.0000000   0.0000000   0.0000000   0.0000000   0.0000000
 NMagM=    2.7928460   2.7928460   0.0000000   2.7928460   2.7928460   0.0000000   2.7928460   2.7928460   0.0000000   2.7928460
 AtZNuc=   1.0000000   1.0000000   8.0000000   1.0000000   1.0000000   8.0000000   1.0000000   1.0000000   8.0000000   1.0000000

  Atom       241         242         243         244         245         246         247         248         249         250
 IAtWgt=           1          16           1           1          16           1           1          16           1           1
 AtmWgt=   1.0078250  15.9949146   1.0078250   1.0078250  15.9949146   1.0078250   1.0078250  15.9949146   1.0078250   1.0078250
 NucSpn=           1           0           1           1           0           1           1           0           1           1
 AtZEff=   0.0000000   0.0000000   0.0000000   0.0000000   0.0000000   0.0000000   0.0000000   0.0000000   0.0000000   0.0000000
 NQMom=    0.0000000   0.0000000   0.0000000   0.0000000   0.0000000   0.0000000   0.0000000   0.0000000   0.0000000   0.0000000
 NMagM=    2.7928460   0.0000000   2.7928460   2.7928460   0.0000000   2.7928460   2.7928460   0.0000000   2.7928460   2.7928460
 AtZNuc=   1.0000000   8.0000000   1.0000000   1.0000000   8.0000000   1.0000000   1.0000000   8.0000000   1.0000000   1.0000000

  Atom       251         252         253         254         255         256         257         258         259         260
 IAtWgt=          16           1           1          16           1           1          16           1           1          16
 AtmWgt=  15.9949146   1.0078250   1.0078250  15.9949146   1.0078250   1.0078250  15.9949146   1.0078250   1.0078250  15.9949146
 NucSpn=           0           1           1           0           1           1           0           1           1           0
 AtZEff=   0.0000000   0.0000000   0.0000000   0.0000000   0.0000000   0.0000000   0.0000000   0.0000000   0.0000000   0.0000000
 NQMom=    0.0000000   0.0000000   0.0000000   0.0000000   0.0000000   0.0000000   0.0000000   0.0000000   0.0000000   0.0000000
 NMagM=    0.0000000   2.7928460   2.7928460   0.0000000   2.7928460   2.7928460   0.0000000   2.7928460   2.7928460   0.0000000
 AtZNuc=   8.0000000   1.0000000   1.0000000   8.0000000   1.0000000   1.0000000   8.0000000   1.0000000   1.0000000   8.0000000

  Atom       261         262         263         264         265         266         267         268         269         270
 IAtWgt=           1           1          16           1           1          16           1           1          16           1
 AtmWgt=   1.0078250   1.0078250  15.9949146   1.0078250   1.0078250  15.9949146   1.0078250   1.0078250  15.9949146   1.0078250
 NucSpn=           1           1           0           1           1           0           1           1           0           1
 AtZEff=   0.0000000   0.0000000   0.0000000   0.0000000   0.0000000   0.0000000   0.0000000   0.0000000   0.0000000   0.0000000
 NQMom=    0.0000000   0.0000000   0.0000000   0.0000000   0.0000000   0.0000000   0.0000000   0.0000000   0.0000000   0.0000000
 NMagM=    2.7928460   2.7928460   0.0000000   2.7928460   2.7928460   0.0000000   2.7928460   2.7928460   0.0000000   2.7928460
 AtZNuc=   1.0000000   1.0000000   8.0000000   1.0000000   1.0000000   8.0000000   1.0000000   1.0000000   8.0000000   1.0000000

  Atom       271         272         273         274         275         276         277         278         279         280
 IAtWgt=           1          16           1           1          16           1           1          16           1           1
 AtmWgt=   1.0078250  15.9949146   1.0078250   1.0078250  15.9949146   1.0078250   1.0078250  15.9949146   1.0078250   1.0078250
 NucSpn=           1           0           1           1           0           1           1           0           1           1
 AtZEff=   0.0000000   0.0000000   0.0000000   0.0000000   0.0000000   0.0000000   0.0000000   0.0000000   0.0000000   0.0000000
 NQMom=    0.0000000   0.0000000   0.0000000   0.0000000   0.0000000   0.0000000   0.0000000   0.0000000   0.0000000   0.0000000
 NMagM=    2.7928460   0.0000000   2.7928460   2.7928460   0.0000000   2.7928460   2.7928460   0.0000000   2.7928460   2.7928460
 AtZNuc=   1.0000000   8.0000000   1.0000000   1.0000000   8.0000000   1.0000000   1.0000000   8.0000000   1.0000000   1.0000000

  Atom       281         282         283         284         285         286         287         288         289         290
 IAtWgt=          16           1           1          16           1           1          16           1           1          16
 AtmWgt=  15.9949146   1.0078250   1.0078250  15.9949146   1.0078250   1.0078250  15.9949146   1.0078250   1.0078250  15.9949146
 NucSpn=           0           1           1           0           1           1           0           1           1           0
 AtZEff=   0.0000000   0.0000000   0.0000000   0.0000000   0.0000000   0.0000000   0.0000000   0.0000000   0.0000000   0.0000000
 NQMom=    0.0000000   0.0000000   0.0000000   0.0000000   0.0000000   0.0000000   0.0000000   0.0000000   0.0000000   0.0000000
 NMagM=    0.0000000   2.7928460   2.7928460   0.0000000   2.7928460   2.7928460   0.0000000   2.7928460   2.7928460   0.0000000
 AtZNuc=   8.0000000   1.0000000   1.0000000   8.0000000   1.0000000   1.0000000   8.0000000   1.0000000   1.0000000   8.0000000

  Atom       291         292         293         294         295         296         297         298         299         300
 IAtWgt=           1           1          16           1           1          16           1           1          16           1
 AtmWgt=   1.0078250   1.0078250  15.9949146   1.0078250   1.0078250  15.9949146   1.0078250   1.0078250  15.9949146   1.0078250
 NucSpn=           1           1           0           1           1           0           1           1           0           1
 AtZEff=   0.0000000   0.0000000   0.0000000   0.0000000   0.0000000   0.0000000   0.0000000   0.0000000   0.0000000   0.0000000
 NQMom=    0.0000000   0.0000000   0.0000000   0.0000000   0.0000000   0.0000000   0.0000000   0.0000000   0.0000000   0.0000000
 NMagM=    2.7928460   2.7928460   0.0000000   2.7928460   2.7928460   0.0000000   2.7928460   2.7928460   0.0000000   2.7928460
 AtZNuc=   1.0000000   1.0000000   8.0000000   1.0000000   1.0000000   8.0000000   1.0000000   1.0000000   8.0000000   1.0000000

  Atom       301         302         303         304         305         306         307         308         309         310
 IAtWgt=           1          16           1           1          16           1           1          16           1           1
 AtmWgt=   1.0078250  15.9949146   1.0078250   1.0078250  15.9949146   1.0078250   1.0078250  15.9949146   1.0078250   1.0078250
 NucSpn=           1           0           1           1           0           1           1           0           1           1
 AtZEff=   0.0000000   0.0000000   0.0000000   0.0000000   0.0000000   0.0000000   0.0000000   0.0000000   0.0000000   0.0000000
 NQMom=    0.0000000   0.0000000   0.0000000   0.0000000   0.0000000   0.0000000   0.0000000   0.0000000   0.0000000   0.0000000
 NMagM=    2.7928460   0.0000000   2.7928460   2.7928460   0.0000000   2.7928460   2.7928460   0.0000000   2.7928460   2.7928460
 AtZNuc=   1.0000000   8.0000000   1.0000000   1.0000000   8.0000000   1.0000000   1.0000000   8.0000000   1.0000000   1.0000000

  Atom       311         312         313         314         315         316         317         318         319         320
 IAtWgt=          16           1           1          16           1           1          16           1           1          16
 AtmWgt=  15.9949146   1.0078250   1.0078250  15.9949146   1.0078250   1.0078250  15.9949146   1.0078250   1.0078250  15.9949146
 NucSpn=           0           1           1           0           1           1           0           1           1           0
 AtZEff=   0.0000000   0.0000000   0.0000000   0.0000000   0.0000000   0.0000000   0.0000000   0.0000000   0.0000000   0.0000000
 NQMom=    0.0000000   0.0000000   0.0000000   0.0000000   0.0000000   0.0000000   0.0000000   0.0000000   0.0000000   0.0000000
 NMagM=    0.0000000   2.7928460   2.7928460   0.0000000   2.7928460   2.7928460   0.0000000   2.7928460   2.7928460   0.0000000
 AtZNuc=   8.0000000   1.0000000   1.0000000   8.0000000   1.0000000   1.0000000   8.0000000   1.0000000   1.0000000   8.0000000

  Atom       321         322         323         324         325         326         327         328         329         330
 IAtWgt=           1           1          16           1           1          16           1           1          16           1
 AtmWgt=   1.0078250   1.0078250  15.9949146   1.0078250   1.0078250  15.9949146   1.0078250   1.0078250  15.9949146   1.0078250
 NucSpn=           1           1           0           1           1           0           1           1           0           1
 AtZEff=   0.0000000   0.0000000   0.0000000   0.0000000   0.0000000   0.0000000   0.0000000   0.0000000   0.0000000   0.0000000
 NQMom=    0.0000000   0.0000000   0.0000000   0.0000000   0.0000000   0.0000000   0.0000000   0.0000000   0.0000000   0.0000000
 NMagM=    2.7928460   2.7928460   0.0000000   2.7928460   2.7928460   0.0000000   2.7928460   2.7928460   0.0000000   2.7928460
 AtZNuc=   1.0000000   1.0000000   8.0000000   1.0000000   1.0000000   8.0000000   1.0000000   1.0000000   8.0000000   1.0000000

  Atom       331         332         333         334         335         336         337         338         339         340
 IAtWgt=           1          16           1           1          16           1           1          16           1           1
 AtmWgt=   1.0078250  15.9949146   1.0078250   1.0078250  15.9949146   1.0078250   1.0078250  15.9949146   1.0078250   1.0078250
 NucSpn=           1           0           1           1           0           1           1           0           1           1
 AtZEff=   0.0000000   0.0000000   0.0000000   0.0000000   0.0000000   0.0000000   0.0000000   0.0000000   0.0000000   0.0000000
 NQMom=    0.0000000   0.0000000   0.0000000   0.0000000   0.0000000   0.0000000   0.0000000   0.0000000   0.0000000   0.0000000
 NMagM=    2.7928460   0.0000000   2.7928460   2.7928460   0.0000000   2.7928460   2.7928460   0.0000000   2.7928460   2.7928460
 AtZNuc=   1.0000000   8.0000000   1.0000000   1.0000000   8.0000000   1.0000000   1.0000000   8.0000000   1.0000000   1.0000000

  Atom       341         342         343         344         345         346         347         348         349         350
 IAtWgt=          16           1           1          16           1           1          16           1           1          16
 AtmWgt=  15.9949146   1.0078250   1.0078250  15.9949146   1.0078250   1.0078250  15.9949146   1.0078250   1.0078250  15.9949146
 NucSpn=           0           1           1           0           1           1           0           1           1           0
 AtZEff=   0.0000000   0.0000000   0.0000000   0.0000000   0.0000000   0.0000000   0.0000000   0.0000000   0.0000000   0.0000000
 NQMom=    0.0000000   0.0000000   0.0000000   0.0000000   0.0000000   0.0000000   0.0000000   0.0000000   0.0000000   0.0000000
 NMagM=    0.0000000   2.7928460   2.7928460   0.0000000   2.7928460   2.7928460   0.0000000   2.7928460   2.7928460   0.0000000
 AtZNuc=   8.0000000   1.0000000   1.0000000   8.0000000   1.0000000   1.0000000   8.0000000   1.0000000   1.0000000   8.0000000

  Atom       351         352         353         354         355         356         357         358         359         360
 IAtWgt=           1           1          16           1           1          16           1           1          16           1
 AtmWgt=   1.0078250   1.0078250  15.9949146   1.0078250   1.0078250  15.9949146   1.0078250   1.0078250  15.9949146   1.0078250
 NucSpn=           1           1           0           1           1           0           1           1           0           1
 AtZEff=   0.0000000   0.0000000   0.0000000   0.0000000   0.0000000   0.0000000   0.0000000   0.0000000   0.0000000   0.0000000
 NQMom=    0.0000000   0.0000000   0.0000000   0.0000000   0.0000000   0.0000000   0.0000000   0.0000000   0.0000000   0.0000000
 NMagM=    2.7928460   2.7928460   0.0000000   2.7928460   2.7928460   0.0000000   2.7928460   2.7928460   0.0000000   2.7928460
 AtZNuc=   1.0000000   1.0000000   8.0000000   1.0000000   1.0000000   8.0000000   1.0000000   1.0000000   8.0000000   1.0000000

  Atom       361         362         363         364         365         366         367         368         369         370
 IAtWgt=           1          16           1           1          16           1           1          16           1           1
 AtmWgt=   1.0078250  15.9949146   1.0078250   1.0078250  15.9949146   1.0078250   1.0078250  15.9949146   1.0078250   1.0078250
 NucSpn=           1           0           1           1           0           1           1           0           1           1
 AtZEff=   0.0000000   0.0000000   0.0000000   0.0000000   0.0000000   0.0000000   0.0000000   0.0000000   0.0000000   0.0000000
 NQMom=    0.0000000   0.0000000   0.0000000   0.0000000   0.0000000   0.0000000   0.0000000   0.0000000   0.0000000   0.0000000
 NMagM=    2.7928460   0.0000000   2.7928460   2.7928460   0.0000000   2.7928460   2.7928460   0.0000000   2.7928460   2.7928460
 AtZNuc=   1.0000000   8.0000000   1.0000000   1.0000000   8.0000000   1.0000000   1.0000000   8.0000000   1.0000000   1.0000000

  Atom       371         372         373         374         375         376         377         378         379         380
 IAtWgt=          16           1           1          16           1           1          16           1           1          16
 AtmWgt=  15.9949146   1.0078250   1.0078250  15.9949146   1.0078250   1.0078250  15.9949146   1.0078250   1.0078250  15.9949146
 NucSpn=           0           1           1           0           1           1           0           1           1           0
 AtZEff=   0.0000000   0.0000000   0.0000000   0.0000000   0.0000000   0.0000000   0.0000000   0.0000000   0.0000000   0.0000000
 NQMom=    0.0000000   0.0000000   0.0000000   0.0000000   0.0000000   0.0000000   0.0000000   0.0000000   0.0000000   0.0000000
 NMagM=    0.0000000   2.7928460   2.7928460   0.0000000   2.7928460   2.7928460   0.0000000   2.7928460   2.7928460   0.0000000
 AtZNuc=   8.0000000   1.0000000   1.0000000   8.0000000   1.0000000   1.0000000   8.0000000   1.0000000   1.0000000   8.0000000

  Atom       381         382         383         384         385
 IAtWgt=           1           1          16           1           1
 AtmWgt=   1.0078250   1.0078250  15.9949146   1.0078250   1.0078250
 NucSpn=           1           1           0           1           1
 AtZEff=   0.0000000   0.0000000   0.0000000   0.0000000   0.0000000
 NQMom=    0.0000000   0.0000000   0.0000000   0.0000000   0.0000000
 NMagM=    2.7928460   2.7928460   0.0000000   2.7928460   2.7928460
 AtZNuc=   1.0000000   1.0000000   8.0000000   1.0000000   1.0000000
 Leave Link  101 at Mon May  7 23:19:28 2018, MaxMem= 14763950080 cpu:        33.3
 (Enter /cm/shared/gaussian/g09.e01/intel64-sandybridge/g09/l103.exe)

 GradGradGradGradGradGradGradGradGradGradGradGradGradGradGradGradGradGrad
 Berny optimization.
 Initialization pass.
 Trust Radius=3.00D-01 FncErr=1.00D-07 GrdErr=1.00D-07
 Number of steps in this run=      2 maximum allowed number of steps=      2.
 GradGradGradGradGradGradGradGradGradGradGradGradGradGradGradGradGradGrad

 Leave Link  103 at Mon May  7 23:19:28 2018, MaxMem= 14763950080 cpu:         3.6
 (Enter /cm/shared/gaussian/g09.e01/intel64-sandybridge/g09/l202.exe)
 Symmetry turned off by external request.
 Stoichiometry    BrH256O128(1-)
 Framework group  C1[X(BrH256O128)]
 Deg. of freedom  1149
 Full point group                 C1      NOp   1
                          Input orientation:                          
 ---------------------------------------------------------------------
 Center     Atomic      Atomic             Coordinates (Angstroms)
 Number     Number       Type             X           Y           Z
 ---------------------------------------------------------------------
      1         35           0       20.000000   20.000000   20.000000
      2          8           0       20.970000   17.410000   18.410000
      3          1           0       21.370000   17.780000   17.620000
      4          1           0       20.840000   18.170000   18.980000
      5          8           0       20.710000   22.660000   21.480000
      6          1           0       20.820000   23.200000   20.700000
      7          1           0       20.170000   21.930000   21.190000
      8          8           0       17.280000   19.960000   18.180000
      9          1           0       18.010000   19.880000   18.790000
     10          1           0       17.020000   20.880000   18.240000
     11          8           0       22.840000   19.110000   21.380000
     12          1           0       23.250000   18.930000   20.540000
     13          1           0       22.000000   19.510000   21.160000
     14          8           0       19.110000   17.710000   22.510000
     15          1           0       19.830000   17.100000   22.650000
     16          1           0       19.440000   18.330000   21.860000
     17          8           0       21.020000   21.430000   16.950000
     18          1           0       20.570000   20.980000   17.650000
     19          1           0       20.420000   21.380000   16.200000
     20          8           0       17.040000   20.750000   21.840000
     21          1           0       17.560000   20.680000   22.640000
     22          1           0       17.670000   20.940000   21.160000
     23          8           0       18.110000   23.210000   19.930000
     24          1           0       18.690000   23.020000   19.190000
     25          1           0       17.240000   22.960000   19.630000
     26          8           0       21.500000   23.770000   19.050000
     27          1           0       21.770000   22.850000   18.970000
     28          1           0       22.310000   24.270000   19.000000
     29          8           0       23.590000   21.810000   19.300000
     30          1           0       23.520000   20.850000   19.280000
     31          1           0       24.020000   22.030000   18.470000
     32          8           0       23.740000   18.910000   18.800000
     33          1           0       23.130000   18.900000   18.060000
     34          1           0       24.550000   18.520000   18.450000
     35          8           0       16.880000   17.050000   18.670000
     36          1           0       17.730000   16.680000   18.440000
     37          1           0       16.930000   17.960000   18.370000
     38          8           0       23.560000   21.400000   22.970000
     39          1           0       23.220000   20.780000   22.330000
     40          1           0       22.780000   21.740000   23.410000
     41          8           0       19.090000   21.980000   24.110000
     42          1           0       18.320000   22.500000   23.900000
     43          1           0       19.720000   22.200000   23.430000
     44          8           0       22.910000   16.170000   21.350000
     45          1           0       22.240000   15.860000   21.960000
     46          1           0       22.590000   17.020000   21.050000
     47          8           0       17.530000   15.830000   21.480000
     48          1           0       17.120000   16.360000   20.800000
     49          1           0       18.240000   16.380000   21.820000
     50          8           0       19.060000   15.470000   17.800000
     51          1           0       19.090000   14.870000   18.550000
     52          1           0       19.870000   15.980000   17.860000
     53          8           0       16.570000   18.270000   23.900000
     54          1           0       16.150000   17.420000   23.830000
     55          1           0       17.390000   18.170000   23.400000
     56          8           0       18.440000   24.410000   22.200000
     57          1           0       18.170000   24.080000   21.350000
     58          1           0       19.080000   25.100000   22.010000
     59          8           0       22.360000   24.400000   22.640000
     60          1           0       22.170000   24.000000   23.480000
     61          1           0       21.810000   23.930000   22.010000
     62          8           0       17.330000   22.610000   16.610000
     63          1           0       16.600000   22.950000   17.120000
     64          1           0       18.080000   23.140000   16.870000
     65          8           0       15.620000   22.230000   19.050000
     66          1           0       15.010000   22.810000   18.610000
     67          1           0       15.130000   21.870000   19.790000
     68          8           0       22.790000   21.120000   14.880000
     69          1           0       21.990000   20.970000   14.380000
     70          1           0       22.500000   21.210000   15.790000
     71          8           0       22.720000   18.010000   16.180000
     72          1           0       22.240000   18.660000   15.670000
     73          1           0       23.620000   18.070000   15.870000
     74          8           0       19.450000   24.710000   16.950000
     75          1           0       19.780000   25.410000   16.400000
     76          1           0       20.150000   24.530000   17.580000
     77          8           0       15.160000   19.430000   16.250000
     78          1           0       15.670000   19.780000   15.510000
     79          1           0       15.730000   19.540000   17.010000
     80          8           0       24.650000   18.600000   23.710000
     81          1           0       25.340000   19.250000   23.570000
     82          1           0       24.190000   18.560000   22.880000
     83          8           0       14.250000   21.500000   21.200000
     84          1           0       13.880000   22.170000   21.780000
     85          1           0       15.080000   21.270000   21.610000
     86          8           0       14.260000   17.310000   20.190000
     87          1           0       15.140000   17.190000   20.550000
     88          1           0       14.360000   17.180000   19.250000
     89          8           0       19.290000   13.890000   19.870000
     90          1           0       19.800000   13.240000   20.360000
     91          1           0       18.910000   14.450000   20.540000
     92          8           0       23.990000   24.970000   19.830000
     93          1           0       24.870000   25.250000   20.060000
     94          1           0       23.740000   24.350000   20.510000
     95          8           0       20.690000   15.740000   23.920000
     96          1           0       21.420000   15.890000   24.510000
     97          1           0       19.910000   15.790000   24.480000
     98          8           0       18.940000   22.500000   14.320000
     99          1           0       18.260000   22.480000   14.990000
    100          1           0       18.760000   23.290000   13.810000
    101          8           0       25.250000   16.010000   19.500000
    102          1           0       24.550000   16.020000   20.150000
    103          1           0       26.020000   15.720000   19.970000
    104          8           0       20.400000   24.060000   25.490000
    105          1           0       19.710000   24.710000   25.620000
    106          1           0       19.940000   23.270000   25.200000
    107          8           0       21.340000   19.950000   26.070000
    108          1           0       20.450000   19.630000   26.200000
    109          1           0       21.480000   20.560000   26.780000
    110          8           0       18.500000   21.330000   26.940000
    111          1           0       18.180000   22.230000   26.960000
    112          1           0       18.600000   21.120000   26.010000
    113          8           0       13.180000   19.740000   19.310000
    114          1           0       13.050000   20.060000   20.200000
    115          1           0       13.710000   18.950000   19.410000
    116          8           0       21.310000   13.910000   16.650000
    117          1           0       21.890000   14.270000   15.980000
    118          1           0       20.530000   14.480000   16.620000
    119          8           0       15.970000   25.550000   22.810000
    120          1           0       16.280000   26.410000   23.060000
    121          1           0       16.760000   25.060000   22.580000
    122          8           0       15.650000   15.450000   23.480000
    123          1           0       15.410000   14.560000   23.730000
    124          1           0       16.250000   15.340000   22.740000
    125          8           0       17.270000   26.240000   17.380000
    126          1           0       17.550000   26.310000   18.290000
    127          1           0       17.750000   25.490000   17.030000
    128          8           0       15.210000   19.900000   25.710000
    129          1           0       14.300000   19.600000   25.710000
    130          1           0       15.620000   19.410000   25.000000
    131          8           0       21.710000   12.700000   20.900000
    132          1           0       21.330000   12.480000   21.760000
    133          1           0       21.910000   13.630000   20.960000
    134          8           0       15.860000   16.740000   14.680000
    135          1           0       16.450000   16.130000   14.230000
    136          1           0       16.130000   16.700000   15.600000
    137          8           0       13.780000   22.000000   16.250000
    138          1           0       14.310000   21.300000   16.620000
    139          1           0       13.390000   22.430000   17.010000
    140          8           0       24.040000   14.500000   17.600000
    141          1           0       23.090000   14.540000   17.500000
    142          1           0       24.220000   14.920000   18.440000
    143          8           0       16.620000   14.240000   16.330000
    144          1           0       16.840000   13.310000   16.410000
    145          1           0       17.380000   14.700000   16.700000
    146          8           0       25.780000   22.180000   24.580000
    147          1           0       25.230000   22.040000   25.350000
    148          1           0       25.190000   22.050000   23.840000
    149          8           0       20.580000   20.890000   13.160000
    150          1           0       19.860000   21.480000   13.360000
    151          1           0       21.160000   21.400000   12.600000
    152          8           0       19.660000   27.030000   21.690000
    153          1           0       20.400000   26.700000   21.170000
    154          1           0       19.990000   27.850000   22.070000
    155          8           0       25.200000   22.770000   16.550000
    156          1           0       25.790000   23.490000   16.350000
    157          1           0       25.780000   22.030000   16.740000
    158          8           0       18.680000   15.850000   25.670000
    159          1           0       17.980000   16.480000   25.510000
    160          1           0       18.230000   15.040000   25.900000
    161          8           0       16.510000   19.460000   13.690000
    162          1           0       16.720000   19.160000   12.800000
    163          1           0       16.530000   18.660000   14.220000
    164          8           0       26.190000   17.980000   17.760000
    165          1           0       26.180000   17.360000   18.490000
    166          1           0       27.090000   17.950000   17.440000
    167          8           0       23.320000   24.170000   15.020000
    168          1           0       23.840000   23.460000   15.390000
    169          1           0       23.240000   24.800000   15.730000
    170          8           0       15.240000   24.350000   17.450000
    171          1           0       15.640000   25.200000   17.600000
    172          1           0       14.300000   24.530000   17.390000
    173          8           0       23.690000   18.110000   26.100000
    174          1           0       23.050000   18.810000   26.160000
    175          1           0       24.170000   18.290000   25.290000
    176          8           0       20.100000   13.080000   23.120000
    177          1           0       20.350000   13.960000   23.420000
    178          1           0       19.150000   13.120000   23.040000
    179          8           0       25.220000   18.120000   15.400000
    180          1           0       25.500000   17.860000   16.280000
    181          1           0       26.040000   18.330000   14.950000
    182          8           0       27.050000   21.020000   17.810000
    183          1           0       27.080000   21.190000   18.750000
    184          1           0       26.680000   20.140000   17.740000
    185          8           0       21.810000   15.610000   14.550000
    186          1           0       22.520000   15.260000   14.020000
    187          1           0       21.570000   16.430000   14.120000
    188          8           0       20.810000   18.200000   13.030000
    189          1           0       20.450000   17.850000   12.230000
    190          1           0       20.580000   19.130000   13.010000
    191          8           0       17.310000   26.880000   20.120000
    192          1           0       18.110000   26.790000   20.650000
    193          1           0       16.600000   26.620000   20.710000
    194          8           0       15.060000   14.210000   20.070000
    195          1           0       15.930000   13.900000   20.320000
    196          1           0       15.210000   14.810000   19.350000
    197          8           0       26.180000   23.440000   21.530000
    198          1           0       25.970000   24.230000   22.040000
    199          1           0       26.040000   23.710000   20.620000
    200          8           0       23.760000   15.060000   24.530000
    201          1           0       24.140000   15.690000   23.920000
    202          1           0       24.490000   14.500000   24.780000
    203          8           0       23.170000   27.070000   22.160000
    204          1           0       22.980000   26.130000   22.210000
    205          1           0       22.430000   27.440000   21.690000
    206          8           0       14.400000   15.910000   17.720000
    207          1           0       15.100000   15.480000   17.230000
[...]
   Y335      33.69382   0.00042   0.00000  -0.00220  -0.00185  33.69196
   Z335      52.38321   0.00962   0.00000   0.00470   0.00463  52.38784
   X336      47.75338  -0.01074   0.00000  -0.00804  -0.00785  47.74553
   Y336      33.76941   0.00167   0.00000   0.00435   0.00465  33.77406
   Z336      51.06040  -0.00222   0.00000   0.00728   0.00722  51.06762
   X337      48.96280  -0.00432   0.00000  -0.00623  -0.00601  48.95679
   Y337      31.95527  -0.00394   0.00000  -0.00650  -0.00614  31.94913
   Z337      52.93123  -0.00610   0.00000  -0.00945  -0.00946  52.92176
   X338      32.59778  -0.01898   0.00000  -0.00974  -0.00958  32.58820
   Y338      44.44636   0.00606   0.00000   0.00790   0.00818  44.45454
   Z338      52.70446  -0.00124   0.00000   0.00095   0.00080  52.70526
   X339      31.76630   0.00526   0.00000   0.00499   0.00514  31.77144
   Y339      46.07152  -0.00087   0.00000   0.00545   0.00574  46.07726
   Z339      52.83674   0.00119   0.00000   0.00276   0.00256  52.83931
   X340      34.33632   0.01693   0.00000   0.00997   0.01014  34.34646
   Y340      44.80541   0.00576   0.00000   0.00534   0.00564  44.81104
   Z340      52.98792   0.00913   0.00000   0.01307   0.01287  53.00080
   X341      25.53020  -0.01162   0.00000  -0.00660  -0.00662  25.52358
   Y341      23.77275  -0.01915   0.00000  -0.01429  -0.01459  23.75817
   Z341      34.99773  -0.01354   0.00000  -0.01480  -0.01421  34.98352
   X342      23.92393   0.00198   0.00000   0.00161   0.00159  23.92552
   Y342      24.60423   0.00257   0.00000   0.00327   0.00295  24.60719
   Z342      34.78986   0.00198   0.00000   0.00211   0.00270  34.79256
   X343      26.60734   0.00674   0.00000  -0.00017  -0.00018  26.60716
   Y343      25.01997   0.00950   0.00000  -0.00076  -0.00103  25.01894
   Z343      35.71582   0.01063   0.00000   0.00932   0.00986  35.72568
   X344      32.84344   0.01598   0.00000   0.01293   0.01261  32.85605
   Y344      44.54084   0.01719   0.00000   0.01100   0.01031  44.55116
   Z344      21.54288  -0.01860   0.00000  -0.01175  -0.01191  21.53097
   X345      31.99306  -0.01619   0.00000  -0.01309  -0.01338  31.97968
   Y345      43.44480  -0.01535   0.00000  -0.00693  -0.00758  43.43723
   Z345      22.67671   0.01303   0.00000   0.00201   0.00190  22.67861
   X346      33.54264   0.00382   0.00000   0.00749   0.00719  33.54983
   Y346      45.84476   0.00241   0.00000   0.00549   0.00484  45.84960
   Z346      22.60112  -0.00179   0.00000  -0.00288  -0.00310  22.59803
   X347      32.86234   0.00463   0.00000  -0.00124  -0.00150  32.86084
   Y347      50.11554   0.00162   0.00000   0.00850   0.00798  50.12352
   Z347      26.85301  -0.00534   0.00000  -0.00303  -0.00337  26.84964
   X348      31.59622  -0.00682   0.00000  -0.00832  -0.00859  31.58763
   Y348      49.73759  -0.00586   0.00000  -0.00849  -0.00905  49.72854
   Z348      25.60579  -0.00266   0.00000   0.00018  -0.00012  25.60567
   X349      31.95527  -0.00490   0.00000  -0.00236  -0.00260  31.95267
   Y349      50.92812   0.00480   0.00000   0.00252   0.00204  50.93016
   Z349      28.17582   0.01604   0.00000   0.01824   0.01790  28.19372
   X350      24.01842  -0.01437   0.00000  -0.01281  -0.01304  24.00538
   Y350      44.71092   0.01853   0.00000   0.01218   0.01163  44.72255
   Z350      26.98529  -0.00776   0.00000  -0.00324  -0.00327  26.98201
   X351      22.84679  -0.00019   0.00000  -0.00171  -0.00196  22.84483
   Y351      43.86054  -0.00514   0.00000  -0.00669  -0.00728  43.85326
   Z351      25.88925   0.00121   0.00000   0.00085   0.00086  25.89011
   X352      24.94438   0.00165   0.00000  -0.00786  -0.00807  24.93631
   Y352      43.38811  -0.01821   0.00000  -0.01248  -0.01300  43.37511
   Z352      27.77897   0.00717   0.00000   0.00359   0.00358  27.78256
   X353      40.28896  -0.01062   0.00000  -0.01076  -0.01052  40.27844
   Y353      37.13312   0.01253   0.00000   0.00800   0.00841  37.14153
   Z353      55.97369   0.01093   0.00000   0.00128   0.00124  55.97493
   X354      39.81653   0.00272   0.00000   0.00302   0.00329  39.81982
   Y354      35.98039   0.00136   0.00000   0.00129   0.00175  35.98213
   Z354      57.31539  -0.00531   0.00000  -0.00533  -0.00534  57.31006
   X355      40.91257   0.01111   0.00000   0.01271   0.01294  40.92551
   Y355      36.05597  -0.01518   0.00000  -0.01285  -0.01247  36.04350
   Z355      54.66978  -0.00762   0.00000   0.00062   0.00059  54.67037
   X356      46.01483  -0.00174   0.00000   0.00560   0.00568  46.02051
   Y356      21.44839  -0.00007   0.00000   0.00106   0.00104  21.44944
   Z356      41.10154   0.01932   0.00000   0.02007   0.02042  41.12196
   X357      46.82741   0.00124   0.00000  -0.00311  -0.00303  46.82438
   Y357      20.16338   0.00165   0.00000   0.00656   0.00651  20.16989
   Z357      40.11889  -0.01001   0.00000  -0.01076  -0.01038  40.10851
   X358      46.37388   0.00044   0.00000  -0.00286  -0.00279  46.37108
   Y358      22.99797  -0.00161   0.00000  -0.00760  -0.00764  22.99032
   Z358      40.23227  -0.01216   0.00000  -0.01541  -0.01511  40.21716
   X359      33.27808  -0.00655   0.00000  -0.00721  -0.00721  33.27087
   Y359      53.42256  -0.00734   0.00000  -0.00444  -0.00441  53.41815
   Z359      44.74871   0.00722   0.00000   0.00407   0.00363  44.75234
   X360      32.08755  -0.00414   0.00000  -0.00383  -0.00384  32.08371
   Y360      54.76426   0.00671   0.00000   0.00659   0.00662  54.77088
   Z360      44.50305  -0.00144   0.00000  -0.00050  -0.00097  44.50208
   X361      34.61978   0.00355   0.00000  -0.00172  -0.00174  34.61804
   Y361      53.78161   0.00249   0.00000   0.00107   0.00108  53.78269
   Z361      43.59598  -0.00788   0.00000  -0.00593  -0.00640  43.58958
   X362      46.92190   0.00108   0.00000  -0.00088  -0.00097  46.92093
   Y362      54.49970   0.02192   0.00000   0.01673   0.01664  54.51635
   Z362      38.87167   0.00007   0.00000  -0.00662  -0.00731  38.86436
   X363      46.35498  -0.00618   0.00000  -0.00442  -0.00451  46.35047
   Y363      52.85564  -0.01895   0.00000  -0.01196  -0.01206  52.84358
   Z363      38.43703   0.00335   0.00000   0.01254   0.01192  38.44895
   X364      48.60376   0.00547   0.00000   0.00621   0.00611  48.60986
   Y364      54.59419  -0.00291   0.00000  -0.00441  -0.00451  54.58968
   Z364      38.21026  -0.00268   0.00000  -0.00254  -0.00325  38.20701
   X365      33.50484   0.00605   0.00000   0.00243   0.00267  33.50751
   Y365      31.52063  -0.02793   0.00000  -0.01582  -0.01551  31.50513
   Z365      53.76271  -0.00359   0.00000  -0.00465  -0.00442  53.75829
   X366      35.18670   0.00480   0.00000   0.00322   0.00346  35.19016
   Y366      31.84189   0.00516   0.00000   0.00575   0.00609  31.84798
   Z366      54.34852   0.00131   0.00000   0.00011   0.00031  54.34883
   X367      32.71116  -0.01262   0.00000  -0.00955  -0.00932  32.70184
   Y367      33.12690   0.02602   0.00000   0.01488   0.01520  33.14209
   Z367      53.72491  -0.00030   0.00000  -0.00068  -0.00048  53.72443
   X368      36.33943   0.00723   0.00000   0.00325   0.00335  36.34279
   Y368      19.86102  -0.00692   0.00000  -0.00632  -0.00636  19.85466
   Z368      41.72515  -0.00406   0.00000  -0.00373  -0.00318  41.72197
   X369      36.16936  -0.00018   0.00000   0.00166   0.00178  36.17114
   Y369      21.25942   0.00353   0.00000  -0.00057  -0.00058  21.25884
   Z369      42.85899   0.00506   0.00000   0.00322   0.00373  42.86272
   X370      34.63868  -0.00863   0.00000  -0.00808  -0.00798  34.63070
   Y370      19.42638   0.00186   0.00000   0.00425   0.00419  19.43057
   Z370      41.29052  -0.00085   0.00000  -0.00080  -0.00021  41.29031
   X371      35.31898   0.00533   0.00000   0.00141   0.00142  35.32040
   Y371      20.39014  -0.00831   0.00000  -0.01021  -0.01045  20.37970
   Z371      35.56465  -0.00513   0.00000  -0.00433  -0.00378  35.56086
   X372      34.61978  -0.00209   0.00000   0.00086   0.00089  34.62067
   Y372      20.69250   0.00644   0.00000   0.00938   0.00919  20.70169
   Z372      37.20871   0.00439   0.00000   0.00088   0.00143  37.21014
   X373      34.12845  -0.00400   0.00000  -0.00367  -0.00369  34.12476
   Y373      21.12714   0.00377   0.00000   0.00490   0.00463  21.13176
   Z373      34.41191   0.00239   0.00000   0.00482   0.00536  34.41727
   X374      24.26408  -0.01912   0.00000  -0.00662  -0.00653  24.25755
   Y374      45.35343   0.00839   0.00000   0.00567   0.00578  45.35920
   Z374      48.26361  -0.00821   0.00000  -0.00692  -0.00698  48.25663
   X375      23.75386  -0.00331   0.00000  -0.00653  -0.00641  23.74744
   Y375      45.97704  -0.00084   0.00000  -0.00195  -0.00179  45.97524
   Z375      49.88877   0.00016   0.00000  -0.00182  -0.00189  49.88688
   X376      25.94594   0.02505   0.00000   0.01752   0.01762  25.96356
   Y376      44.74871  -0.00937   0.00000  -0.00735  -0.00723  44.74149
   Z376      48.52817   0.00776   0.00000   0.00846   0.00840  48.53656
   X377      30.87813   0.01433   0.00000   0.01210   0.01216  30.89028
   Y377      21.52398   0.01406   0.00000   0.00692   0.00678  21.53076
   Z377      39.17402   0.00702   0.00000   0.01037   0.01095  39.18498
   X378      29.55532  -0.00682   0.00000  -0.00917  -0.00911  29.54620
   Y378      22.50664  -0.00294   0.00000  -0.00426  -0.00438  22.50226
   Z378      39.94881  -0.00322   0.00000  -0.00687  -0.00630  39.94251
   X379      30.16003  -0.01025   0.00000  -0.00801  -0.00795  30.15207
   Y379      19.89882  -0.01161   0.00000  -0.00315  -0.00330  19.89551
   Z379      38.90946  -0.00474   0.00000  -0.00692  -0.00628  38.90319
   X380      20.44684  -0.00339   0.00000  -0.00045  -0.00040  20.44643
   Y380      38.94726   0.01408   0.00000   0.00883   0.00877  38.95602
   Z380      43.36921  -0.00761   0.00000  -0.00498  -0.00478  43.36443
   X381      21.61847   0.00945   0.00000   0.00586   0.00592  21.62439
   Y381      38.28585  -0.00426   0.00000  -0.00021  -0.00023  38.28562
   Z381      44.55974   0.01177   0.00000   0.00945   0.00966  44.56940
   X382      19.46418  -0.00401   0.00000  -0.00190  -0.00186  19.46232
   Y382      37.52996  -0.00743   0.00000  -0.00420  -0.00428  37.52568
   Z382      42.84009  -0.00327   0.00000  -0.00349  -0.00323  42.83687
   X383      23.22473   0.00746   0.00000   0.00346   0.00359  23.22832
   Y383      37.77563   0.02142   0.00000   0.01301   0.01313  37.78876
   Z383      48.79273   0.00076   0.00000  -0.00760  -0.00741  48.78532
   X384      23.43260   0.00021   0.00000  -0.00044  -0.00032  23.43228
   Y384      36.32054  -0.02418   0.00000  -0.02213  -0.02205  36.29849
   Z384      47.77228  -0.00736   0.00000  -0.00002   0.00021  47.77249
   X385      21.67516  -0.00682   0.00000  -0.00193  -0.00178  21.67338
   Y385      37.51106  -0.00309   0.00000  -0.00170  -0.00156  37.50950
   Z385      49.68090   0.00395   0.00000   0.00229   0.00251  49.68341
         Item               Value     Threshold  Converged?
 Maximum Force            0.038212     0.000450     NO 
 RMS     Force            0.010593     0.000300     NO 
 Maximum Displacement     0.031554     0.001800     NO 
 RMS     Displacement     0.008824     0.001200     NO 
 Predicted change in Energy=-7.356277D-02
 GradGradGradGradGradGradGradGradGradGradGradGradGradGradGradGradGradGrad

 Leave Link  103 at Tue May  8 01:43:00 2018, MaxMem= 14763950080 cpu:      3476.8
 (Enter /cm/shared/gaussian/g09.e01/intel64-sandybridge/g09/l9999.exe)
 1\1\GINC-POPLE01\Force\RPBE1PBE\CC-pVDZ\Br1H256O128(1-)\M.PELUSO\08-Ma
 y-2018\0\\#p PBE1PBE/cc-pvDZ force Counterpoise=2 noSymm\\forces on ch
 loride comput - NWATER: 128\\-1,1\Br,20.,20.,20.\O,20.97,17.41,18.41\H
 ,21.37,17.78,17.62\H,20.84,18.17,18.98\O,20.71,22.66,21.48\H,20.82,23.
 2,20.7\H,20.17,21.93,21.19\O,17.28,19.96,18.18\H,18.01,19.88,18.79\H,1
 7.02,20.88,18.24\O,22.84,19.11,21.38\H,23.25,18.93,20.54\H,22.,19.51,2
 1.16\O,19.11,17.71,22.51\H,19.83,17.1,22.65\H,19.44,18.33,21.86\O,21.0
 2,21.43,16.95\H,20.57,20.98,17.65\H,20.42,21.38,16.2\O,17.04,20.75,21.
 84\H,17.56,20.68,22.64\H,17.67,20.94,21.16\O,18.11,23.21,19.93\H,18.69
 ,23.02,19.19\H,17.24,22.96,19.63\O,21.5,23.77,19.05\H,21.77,22.85,18.9
 7\H,22.31,24.27,19.\O,23.59,21.81,19.3\H,23.52,20.85,19.28\H,24.02,22.
 03,18.47\O,23.74,18.91,18.8\H,23.13,18.9,18.06\H,24.55,18.52,18.45\O,1
 6.88,17.05,18.67\H,17.73,16.68,18.44\H,16.93,17.96,18.37\O,23.56,21.4,
 22.97\H,23.22,20.78,22.33\H,22.78,21.74,23.41\O,19.09,21.98,24.11\H,18
 .32,22.5,23.9\H,19.72,22.2,23.43\O,22.91,16.17,21.35\H,22.24,15.86,21.
 96\H,22.59,17.02,21.05\O,17.53,15.83,21.48\H,17.12,16.36,20.8\H,18.24,
 16.38,21.82\O,19.06,15.47,17.8\H,19.09,14.87,18.55\H,19.87,15.98,17.86
 \O,16.57,18.27,23.9\H,16.15,17.42,23.83\H,17.39,18.17,23.4\O,18.44,24.
 41,22.2\H,18.17,24.08,21.35\H,19.08,25.1,22.01\O,22.36,24.4,22.64\H,22
 .17,24.,23.48\H,21.81,23.93,22.01\O,17.33,22.61,16.61\H,16.6,22.95,17.
 12\H,18.08,23.14,16.87\O,15.62,22.23,19.05\H,15.01,22.81,18.61\H,15.13
 ,21.87,19.79\O,22.79,21.12,14.88\H,21.99,20.97,14.38\H,22.5,21.21,15.7
 9\O,22.72,18.01,16.18\H,22.24,18.66,15.67\H,23.62,18.07,15.87\O,19.45,
 24.71,16.95\H,19.78,25.41,16.4\H,20.15,24.53,17.58\O,15.16,19.43,16.25
 \H,15.67,19.78,15.51\H,15.73,19.54,17.01\O,24.65,18.6,23.71\H,25.34,19
 .25,23.57\H,24.19,18.56,22.88\O,14.25,21.5,21.2\H,13.88,22.17,21.78\H,
 15.08,21.27,21.61\O,14.26,17.31,20.19\H,15.14,17.19,20.55\H,14.36,17.1
 8,19.25\O,19.29,13.89,19.87\H,19.8,13.24,20.36\H,18.91,14.45,20.54\O,2
 3.99,24.97,19.83\H,24.87,25.25,20.06\H,23.74,24.35,20.51\O,20.69,15.74
 ,23.92\H,21.42,15.89,24.51\H,19.91,15.79,24.48\O,18.94,22.5,14.32\H,18
 .26,22.48,14.99\H,18.76,23.29,13.81\O,25.25,16.01,19.5\H,24.55,16.02,2
 0.15\H,26.02,15.72,19.97\O,20.4,24.06,25.49\H,19.71,24.71,25.62\H,19.9
 4,23.27,25.2\O,21.34,19.95,26.07\H,20.45,19.63,26.2\H,21.48,20.56,26.7
 8\O,18.5,21.33,26.94\H,18.18,22.23,26.96\H,18.6,21.12,26.01\O,13.18,19
 .74,19.31\H,13.05,20.06,20.2\H,13.71,18.95,19.41\O,21.31,13.91,16.65\H
 ,21.89,14.27,15.98\H,20.53,14.48,16.62\O,15.97,25.55,22.81\H,16.28,26.
 41,23.06\H,16.76,25.06,22.58\O,15.65,15.45,23.48\H,15.41,14.56,23.73\H
 ,16.25,15.34,22.74\O,17.27,26.24,17.38\H,17.55,26.31,18.29\H,17.75,25.
 49,17.03\O,15.21,19.9,25.71\H,14.3,19.6,25.71\H,15.62,19.41,25.\O,21.7
 1,12.7,20.9\H,21.33,12.48,21.76\H,21.91,13.63,20.96\O,15.86,16.74,14.6
 8\H,16.45,16.13,14.23\H,16.13,16.7,15.6\O,13.78,22.,16.25\H,14.31,21.3
 ,16.62\H,13.39,22.43,17.01\O,24.04,14.5,17.6\H,23.09,14.54,17.5\H,24.2
 2,14.92,18.44\O,16.62,14.24,16.33\H,16.84,13.31,16.41\H,17.38,14.7,16.
 7\O,25.78,22.18,24.58\H,25.23,22.04,25.35\H,25.19,22.05,23.84\O,20.58,
 20.89,13.16\H,19.86,21.48,13.36\H,21.16,21.4,12.6\O,19.66,27.03,21.69\
 H,20.4,26.7,21.17\H,19.99,27.85,22.07\O,25.2,22.77,16.55\H,25.79,23.49
 ,16.35\H,25.78,22.03,16.74\O,18.68,15.85,25.67\H,17.98,16.48,25.51\H,1
 8.23,15.04,25.9\O,16.51,19.46,13.69\H,16.72,19.16,12.8\H,16.53,18.66,1
 4.22\O,26.19,17.98,17.76\H,26.18,17.36,18.49\H,27.09,17.95,17.44\O,23.
 32,24.17,15.02\H,23.84,23.46,15.39\H,23.24,24.8,15.73\O,15.24,24.35,17
 .45\H,15.64,25.2,17.6\H,14.3,24.53,17.39\O,23.69,18.11,26.1\H,23.05,18
 .81,26.16\H,24.17,18.29,25.29\O,20.1,13.08,23.12\H,20.35,13.96,23.42\H
 ,19.15,13.12,23.04\O,25.22,18.12,15.4\H,25.5,17.86,16.28\H,26.04,18.33
 ,14.95\O,27.05,21.02,17.81\H,27.08,21.19,18.75\H,26.68,20.14,17.74\O,2
 1.81,15.61,14.55\H,22.52,15.26,14.02\H,21.57,16.43,14.12\O,20.81,18.2,
 13.03\H,20.45,17.85,12.23\H,20.58,19.13,13.01\O,17.31,26.88,20.12\H,18
 .11,26.79,20.65\H,16.6,26.62,20.71\O,15.06,14.21,20.07\H,15.93,13.9,20
 .32\H,15.21,14.81,19.35\O,26.18,23.44,21.53\H,25.97,24.23,22.04\H,26.0
 4,23.71,20.62\O,23.76,15.06,24.53\H,24.14,15.69,23.92\H,24.49,14.5,24.
 78\O,23.17,27.07,22.16\H,22.98,26.13,22.21\H,22.43,27.44,21.69\O,14.4,
 15.91,17.72\H,15.1,15.48,17.23\H,13.84,16.29,17.04\O,18.92,26.12,24.61
 \H,18.55,26.09,23.73\H,18.62,26.96,24.97\O,27.49,21.08,20.77\H,27.01,2
 1.8,21.17\H,28.22,20.92,21.37\O,25.16,24.91,23.5\H,24.22,25.07,23.54\H
 ,25.28,24.05,23.91\O,21.86,27.64,19.8\H,21.67,28.47,19.37\H,22.28,27.1
 1,19.12\O,15.36,23.05,25.86\H,15.81,23.16,26.69\H,15.47,22.12,25.65\O,
 25.2,20.82,13.23\H,25.75,20.3,13.82\H,24.41,20.99,13.74\O,21.61,23.6,1
 2.88\H,22.19,23.84,13.6\H,20.73,23.82,13.19\O,14.11,25.52,20.7\H,13.3,
 25.01,20.63\H,14.44,25.31,21.58\O,21.95,11.83,18.59\H,21.96,12.2,19.47
 \H,21.7,12.56,18.02\O,13.44,23.41,22.95\H,13.08,23.36,23.84\H,13.98,24
 .19,22.96\O,15.18,24.47,14.58\H,15.89,24.76,15.16\H,14.88,23.65,14.97\
 O,12.14,17.07,21.88\H,12.74,16.99,21.13\H,11.37,17.52,21.52\O,15.87,21
 .71,12.45\H,16.14,21.11,13.15\H,15.77,21.16,11.68\O,20.71,27.27,16.48\
 H,20.41,27.93,17.1\H,21.66,27.21,16.63\O,13.43,18.19,13.99\H,14.06,18.
 15,14.71\H,13.59,17.38,13.5\O,20.86,14.88,26.99\H,20.05,15.23,26.63\H,
 20.7,14.82,27.93\O,17.51,13.01,23.49\H,17.7,13.21,24.41\H,16.56,12.86,
 23.48\O,12.06,20.01,15.54\H,12.11,19.43,14.78\H,12.97,20.19,15.77\O,22
 .54,24.9,26.94\H,22.14,24.57,27.75\H,21.81,24.94,26.32\O,29.04,18.91,1
 8.94\H,29.54,19.68,19.22\H,28.18,19.03,19.34\O,12.54,23.25,18.35\H,12.
 27,23.36,19.26\H,12.5,24.13,17.98\O,26.28,14.4,16.25\H,25.39,14.52,16.
 57\H,26.3,14.86,15.41\O,27.35,20.66,15.02\H,27.24,21.13,15.84\H,28.29,
 20.49,14.96\O,16.27,19.26,28.13\H,15.82,19.33,27.29\H,16.14,20.11,28.5
 4\O,24.34,22.77,26.8\H,24.25,22.26,27.6\H,23.79,23.54,26.93\O,12.89,13
 .99,21.9\H,13.51,14.59,21.5\H,12.82,14.29,22.81\O,27.37,15.64,21.63\H,
 27.18,16.01,22.5\H,28.17,16.09,21.35\O,13.12,17.27,24.79\H,13.59,16.45
 ,24.59\H,12.6,17.44,24.\O,11.16,18.03,17.58\H,11.88,18.54,17.21\H,11.3
 7,17.97,18.51\O,10.62,21.08,18.69\H,10.96,21.97,18.55\H,11.4,20.53,18.
 69\O,14.64,27.32,18.45\H,14.81,28.26,18.51\H,14.8,26.98,19.33\O,19.11,
 25.21,12.88\H,18.72,25.77,13.55\H,19.71,25.78,12.4\O,14.9,15.56,26.79\
 H,14.11,16.05,27.01\H,15.02,15.71,25.85\O,11.49,24.04,20.83\H,12.11,23
 .67,21.45\H,11.13,24.81,21.28\O,23.52,27.48,16.89\H,23.31,28.08,16.17\
 H,24.45,27.62,17.05\O,19.1,21.65,29.56\H,18.79,21.75,28.66\H,19.83,21.
 04,29.49\O,24.7,15.08,27.14\H,24.85,14.15,27.02\H,24.08,15.32,26.45\O,
 23.28,17.35,28.72\H,23.51,17.32,27.79\H,24.11,17.56,29.16\O,26.57,26.1
 3,20.41\H,26.98,26.53,21.18\H,27.23,25.54,20.06\O,18.52,13.09,13.45\H,
 18.78,12.27,13.02\H,19.19,13.24,14.11\O,26.68,15.73,24.31\H,27.07,16.1
 8,25.05\H,27.13,14.89,24.28\O,25.17,12.15,18.76\H,25.8,12.85,18.61\H,2
 4.44,12.35,18.17\O,25.93,17.83,27.72\H,25.27,17.87,27.02\H,25.91,16.91
 ,28.01\O,17.25,23.52,27.89\H,16.81,24.38,27.96\H,18.17,23.71,28.04\O,1
 3.51,12.58,18.52\H,12.66,13.02,18.41\H,14.08,13.24,18.9\O,17.38,23.57,
 11.4\H,16.93,22.99,12.\H,17.75,24.26,11.96\O,17.39,26.52,14.21\H,16.72
 ,26.32,13.55\H,16.91,26.95,14.91\O,12.71,23.66,14.28\H,12.09,23.21,13.
 7\H,13.2,22.96,14.7\O,21.32,19.65,29.62\H,21.07,19.04,30.33\H,21.65,19
 .08,28.93\O,24.35,11.35,21.75\H,24.78,10.67,21.23\H,24.54,12.17,21.29\
 O,17.61,28.27,23.68\H,16.98,28.98,23.55\H,18.32,28.46,23.07\O,24.83,28
 .84,20.57\H,24.53,27.97,20.34\H,25.72,28.89,20.22\O,17.73,16.68,28.45\
 H,18.62,16.85,28.76\H,17.31,17.53,28.43\O,19.23,10.51,22.08\H,19.14,11
 .25,22.68\H,18.33,10.28,21.85\O,18.69,10.79,18.82\H,18.32,10.95,19.69\
 H,18.06,11.18,18.21\O,12.84,24.,25.54\H,12.57,24.33,26.4\H,13.73,23.68
 ,25.68\O,16.34,11.39,20.73\H,15.64,11.91,21.14\H,15.96,10.53,20.59\O,1
 0.82,20.61,22.95\H,11.44,20.26,23.58\H,10.3,19.86,22.67\O,12.29,19.99,
 25.82\H,12.4,19.22,25.28\H,11.47,19.85,26.29\\Version=ES64L-G09RevE.01
 \HF=-9773.2601651\RMSD=1.477e-09\RMSF=1.059e-02\Dipole=5.1103039,10.48
 04862,7.4171321\Quadrupole=-122.2364882,258.8109714,-136.5744831,-758.
 223035,-1058.5480697,-743.226802\PG=C01 [X(Br1H256O128)]\\@


 THOSE WITH THE GOLD MAKE THE RULES.

             -- PETER'S GOLDEN RULE
 Job cpu time:       6 days  6 hours 12 minutes 11.8 seconds.
 File lengths (MBytes):  RWF=   7285 Int=      0 D2E=      0 Chk=   2411 Scr=      1
 Normal termination of Gaussian 09 at Tue May  8 01:43:29 2018.
