 Entering Gaussian System, Link 0=/cm/shared/gaussian/g09.e01/intel64-sandybridge/g09/g09
 Initial command:
 /cm/shared/gaussian/g09.e01/intel64-sandybridge/g09/l1.exe "/local/scratch/m.peluso/128_wat/370/Gau-6621.inp" -scrdir="/local/scratch/m.peluso/128_wat/370/"
 Entering Link 1 = /cm/shared/gaussian/g09.e01/intel64-sandybridge/g09/l1.exe PID=      6622.
  
 Copyright (c) 1988,1990,1992,1993,1995,1998,2003,2009,2015,
            Gaussian, Inc.  All Rights Reserved.
  
 This is part of the Gaussian(R) 09 program.  It is based on
 the Gaussian(R) 03 system (copyright 2003, Gaussian, Inc.),
 the Gaussian(R) 98 system (copyright 1998, Gaussian, Inc.),
 the Gaussian(R) 94 system (copyright 1995, Gaussian, Inc.),
 the Gaussian 92(TM) system (copyright 1992, Gaussian, Inc.),
 the Gaussian 90(TM) system (copyright 1990, Gaussian, Inc.),
 the Gaussian 88(TM) system (copyright 1988, Gaussian, Inc.),
 the Gaussian 86(TM) system (copyright 1986, Carnegie Mellon
 University), and the Gaussian 82(TM) system (copyright 1983,
 Carnegie Mellon University). Gaussian is a federally registered
 trademark of Gaussian, Inc.
  
 This software contains proprietary and confidential information,
 including trade secrets, belonging to Gaussian, Inc.
  
 This software is provided under written license and may be
 used, copied, transmitted, or stored only in accord with that
 written license.
  
 The following legend is applicable only to US Government
 contracts under FAR:
  
                    RESTRICTED RIGHTS LEGEND
  
 Use, reproduction and disclosure by the US Government is
 subject to restrictions as set forth in subparagraphs (a)
 and (c) of the Commercial Computer Software - Restricted
 Rights clause in FAR 52.227-19.
  
 Gaussian, Inc.
 340 Quinnipiac St., Bldg. 40, Wallingford CT 06492
  
  
 ---------------------------------------------------------------
 Warning -- This program may not be used in any manner that
 competes with the business of Gaussian, Inc. or will provide
 assistance to any competitor of Gaussian, Inc.  The licensee
 of this program is prohibited from giving any competitor of
 Gaussian, Inc. access to this program.  By using this program,
 the user acknowledges that Gaussian, Inc. is engaged in the
 business of creating and licensing software in the field of
 computational chemistry and represents and warrants to the
 licensee that it is not a competitor of Gaussian, Inc. and that
 it will not use this program in any manner prohibited above.
 ---------------------------------------------------------------
  

 Cite this work as:
 Gaussian 09, Revision E.01,
 M. J. Frisch, G. W. Trucks, H. B. Schlegel, G. E. Scuseria, 
 M. A. Robb, J. R. Cheeseman, G. Scalmani, V. Barone, B. Mennucci, 
 G. A. Petersson, H. Nakatsuji, M. Caricato, X. Li, H. P. Hratchian, 
 A. F. Izmaylov, J. Bloino, G. Zheng, J. L. Sonnenberg, M. Hada, 
 M. Ehara, K. Toyota, R. Fukuda, J. Hasegawa, M. Ishida, T. Nakajima, 
 Y. Honda, O. Kitao, H. Nakai, T. Vreven, J. A. Montgomery, Jr., 
 J. E. Peralta, F. Ogliaro, M. Bearpark, J. J. Heyd, E. Brothers, 
 K. N. Kudin, V. N. Staroverov, T. Keith, R. Kobayashi, J. Normand, 
 K. Raghavachari, A. Rendell, J. C. Burant, S. S. Iyengar, J. Tomasi, 
 M. Cossi, N. Rega, J. M. Millam, M. Klene, J. E. Knox, J. B. Cross, 
 V. Bakken, C. Adamo, J. Jaramillo, R. Gomperts, R. E. Stratmann, 
 O. Yazyev, A. J. Austin, R. Cammi, C. Pomelli, J. W. Ochterski, 
 R. L. Martin, K. Morokuma, V. G. Zakrzewski, G. A. Voth, 
 P. Salvador, J. J. Dannenberg, S. Dapprich, A. D. Daniels, 
 O. Farkas, J. B. Foresman, J. V. Ortiz, J. Cioslowski, 
 and D. J. Fox, Gaussian, Inc., Wallingford CT, 2013.
 
 ******************************************
 Gaussian 09:  ES64L-G09RevE.01 30-Nov-2015
                 8-May-2018 
 ******************************************
 %Mem=110GB
 %NProcShared=64
 Will use up to   64 processors via shared memory.
 %chk=snap18.chk
 ----------------------------------------------
 #p PBE1PBE/cc-pvDZ force Counterpoise=2 noSymm
 ----------------------------------------------
 1/10=7,30=1,38=1,62=2/1,3;
 2/12=2,15=1,17=6,18=5,40=1/2;
 1/10=7,30=1,38=1,53=2,62=2,63=101/22;
 3/5=16,11=2,16=1,25=1,30=1,71=1,74=-13/1,2,3;
 4//1;
 5/5=2,38=5/2;
 6/7=2,8=2,9=2,10=2,28=1/1;
 7/7=1,29=1,30=1,33=-1/1,2,3,16;
 1/10=7,30=1,53=2,62=2,63=101/22;
 3/5=7,6=11,11=2,16=1,25=1,30=1,71=1,74=-13,82=7/1,2,3;
 4//1;
 5/5=2,38=5/2;
 6/7=2,8=2,9=2,10=2,28=1/1;
 7/7=1,29=1,30=1,33=-1/1,2,3,16;
 1/10=7,30=1,53=2,62=2,63=101/22(-5);
 7/9=1,29=1,44=-1/16;
 1/10=7,30=1,62=2/3;
 99//99;
 Leave Link    1 at Tue May  8 21:58:37 2018, MaxMem= 14763950080 cpu:       180.4
 (Enter /cm/shared/gaussian/g09.e01/intel64-sandybridge/g09/l101.exe)
 ---------------------------------------
 forces on chloride comput - NWATER: 128
 ---------------------------------------
 Symbolic Z-matrix:
 Charge = -1 Multiplicity = 1 in supermolecule
 Charge = -1 Multiplicity = 1 in fragment      1.
 Charge =  0 Multiplicity = 1 in fragment      2.
 Br(Fragment=1)        20.       20.       20. 
 O(Fragment=2)         22.93     19.14     21.06 
 H(Fragment=2)         22.03     19.47     21.07 
 H(Fragment=2)         23.47     19.91     20.93 
 O(Fragment=2)         20.39     21.79     17.2 
 H(Fragment=2)         21.       21.41     16.57 
 H(Fragment=2)         20.4      21.19     17.94 
 O(Fragment=2)         22.35     22.04     21.32 
 H(Fragment=2)         21.74     21.42     20.92 
 H(Fragment=2)         22.32     21.83     22.25 
 O(Fragment=2)         17.       19.3      18.86 
 H(Fragment=2)         16.78     20.14     19.28 
 H(Fragment=2)         17.94     19.21     18.98 
 O(Fragment=2)         19.55     18.49     22.85 
 H(Fragment=2)         19.25     18.99     22.09 
 H(Fragment=2)         20.49     18.36     22.69 
 O(Fragment=2)         21.04     16.65     18.68 
 H(Fragment=2)         20.39     15.98     18.88 
 H(Fragment=2)         20.77     17.41     19.19 
 O(Fragment=2)         16.43     21.58     20.09 
 H(Fragment=2)         17.24     21.39     20.57 
 H(Fragment=2)         16.7      22.12     19.35 
 O(Fragment=2)         17.63     22.27     17.63 
 H(Fragment=2)         17.54     23.03     17.06 
 H(Fragment=2)         18.57     22.19     17.78 
 O(Fragment=2)         22.4      17.26     22.82 
 H(Fragment=2)         22.81     16.56     22.31 
 H(Fragment=2)         22.47     18.03     22.27 
 O(Fragment=2)         18.53     15.74     22.12 
 H(Fragment=2)         18.65     15.63     21.18 
 H(Fragment=2)         18.64     16.68     22.27 
 O(Fragment=2)         23.77     17.09     17.81 
 H(Fragment=2)         23.83     16.21     17.46 
 H(Fragment=2)         22.88     17.17     18.14 
 O(Fragment=2)         17.71     18.91     15.62 
 H(Fragment=2)         16.85     18.67     15.28 
 H(Fragment=2)         17.53     19.54     16.32 
 O(Fragment=2)         22.68     21.14     16.12 
 H(Fragment=2)         23.12     21.03     15.28 
 H(Fragment=2)         23.24     20.67     16.74 
 O(Fragment=2)         20.91     24.28     16.68 
 H(Fragment=2)         20.54     23.43     16.91 
 H(Fragment=2)         21.73     24.08     16.23 
 O(Fragment=2)         23.41     15.76     20.41 
 H(Fragment=2)         23.31     14.83     20.19 
 H(Fragment=2)         22.72     16.2      19.91 
 O(Fragment=2)         19.08     19.46     25.48 
 H(Fragment=2)         19.09     18.71     26.08 
 H(Fragment=2)         19.14     19.07     24.61 
 O(Fragment=2)         20.96     16.37     15.89 
 H(Fragment=2)         21.08     16.41     16.84 
 H(Fragment=2)         20.12     15.93     15.77 
 O(Fragment=2)         17.97     25.09     19.51 
 H(Fragment=2)         17.05     24.95     19.29 
 H(Fragment=2)         18.1      24.63     20.34 
 O(Fragment=2)         15.18     21.52     16.85 
 H(Fragment=2)         15.45     22.1      16.14 
 H(Fragment=2)         15.94     21.46     17.42 
 O(Fragment=2)         25.12     19.53     17.79 
 H(Fragment=2)         25.61     19.77     18.58 
 H(Fragment=2)         24.54     18.82     18.07 
 O(Fragment=2)         24.97     22.72     18.41 
 H(Fragment=2)         24.03     22.6      18.31 
 H(Fragment=2)         25.12     23.63     18.15 
 O(Fragment=2)         14.11     18.57     18.79 
 H(Fragment=2)         15.03     18.75     18.94 
 H(Fragment=2)         14.1      17.7      18.39 
 O(Fragment=2)         22.93     21.49     24.14 
 H(Fragment=2)         22.72     21.13     25. 
 H(Fragment=2)         23.71     21.       23.86 
 O(Fragment=2)         19.53     19.69     13.91 
 H(Fragment=2)         19.04     19.15     13.29 
 H(Fragment=2)         19.09     19.54     14.75 
 O(Fragment=2)         16.25     16.28     17. 
 H(Fragment=2)         16.54     15.73     16.26 
 H(Fragment=2)         16.67     17.12     16.85 
 O(Fragment=2)         22.48     25.65     20.24 
 H(Fragment=2)         22.53     26.17     19.43 
 H(Fragment=2)         22.7      24.76     19.97 
 O(Fragment=2)         16.65     16.74     24.57 
 H(Fragment=2)         16.94     17.48     24.04 
 H(Fragment=2)         17.32     16.63     25.24 
 O(Fragment=2)         19.57     14.52     18.64 
 H(Fragment=2)         19.78     14.06     17.82 
 H(Fragment=2)         20.34     14.38     19.19 
 O(Fragment=2)         13.69     22.26     20.55 
 H(Fragment=2)         14.57     21.99     20.29 
 H(Fragment=2)         13.82     22.74     21.37 
 O(Fragment=2)         25.14     23.6      22.37 
 H(Fragment=2)         24.3      23.15     22.38 
 H(Fragment=2)         25.53     23.36     21.53 
 O(Fragment=2)         18.83     23.17     14.88 
 H(Fragment=2)         19.56     23.79     14.9 
 H(Fragment=2)         19.23     22.33     14.7 
 O(Fragment=2)         19.97     24.32     24.2 
 H(Fragment=2)         20.13     24.83     23.41 
 H(Fragment=2)         20.82     23.93     24.42 
 O(Fragment=2)         17.85     22.79     25.71 
 H(Fragment=2)         17.65     22.06     25.12 
 H(Fragment=2)         18.66     23.16     25.36 
 O(Fragment=2)         21.68     17.18     25.7 
 H(Fragment=2)         22.21     16.52     26.14 
 H(Fragment=2)         22.22     17.47     24.97 
 O(Fragment=2)         20.58     21.41     26.36 
 H(Fragment=2)         19.97     20.75     26.03 
 H(Fragment=2)         21.45     21.07     26.15 
 O(Fragment=2)         25.11     20.22     23.58 
 H(Fragment=2)         25.1      19.32     23.26 
 H(Fragment=2)         25.77     20.66     23.05 
 O(Fragment=2)         22.       18.24     13.93 
 H(Fragment=2)         21.47     19.04     13.96 
 H(Fragment=2)         21.64     17.68     14.61 
 O(Fragment=2)         22.09     14.4      23.82 
 H(Fragment=2)         21.47     13.67     23.8 
 H(Fragment=2)         21.6      15.15     23.5 
 O(Fragment=2)         22.76     23.98     24.79 
 H(Fragment=2)         22.87     24.1      25.73 
 H(Fragment=2)         23.08     23.09     24.63 
 O(Fragment=2)         16.02     14.77     22.4 
 H(Fragment=2)         16.92     15.04     22.58 
 H(Fragment=2)         15.53     15.6      22.38 
 O(Fragment=2)         19.05     26.3      17.27 
 H(Fragment=2)         19.85     25.8      17.1 
 H(Fragment=2)         18.72     25.96     18.1 
 O(Fragment=2)         14.44     16.73     21.48 
 H(Fragment=2)         14.65     16.41     20.6 
 H(Fragment=2)         14.22     17.65     21.36 
 O(Fragment=2)         15.55     21.69     24.31 
 H(Fragment=2)         14.67     21.5      23.99 
 H(Fragment=2)         15.41     22.27     25.05 
 O(Fragment=2)         26.45     19.8      20.2 
 H(Fragment=2)         26.97     19.03     19.98 
 H(Fragment=2)         27.08     20.52     20.24 
 O(Fragment=2)         16.26     19.57     25.87 
 H(Fragment=2)         17.21     19.55     25.84 
 H(Fragment=2)         16.       20.22     25.23 
 O(Fragment=2)         19.98     26.12     22.3 
 H(Fragment=2)         19.4      26.84     22.55 
 H(Fragment=2)         20.28     26.33     21.42 
 O(Fragment=2)         23.05     26.       22.98 
 H(Fragment=2)         23.39     25.31     23.55 
 H(Fragment=2)         22.47     25.54     22.37 
 O(Fragment=2)         15.16     14.95     19.13 
 H(Fragment=2)         15.69     15.31     18.41 
 H(Fragment=2)         15.51     14.07     19.27 
 O(Fragment=2)         13.27     19.04     21.36 
 H(Fragment=2)         12.34     19.22     21.46 
 H(Fragment=2)         13.43     19.07     20.42 
 O(Fragment=2)         16.06     23.47     15.38 
 H(Fragment=2)         15.77     24.37     15.54 
 H(Fragment=2)         17.       23.54     15.22 
 O(Fragment=2)         25.85     17.65     22.38 
 H(Fragment=2)         26.52     17.1      22.79 
 H(Fragment=2)         26.1      17.69     21.46 
 O(Fragment=2)         21.99     13.52     19.92 
 H(Fragment=2)         21.81     12.97     20.68 
 H(Fragment=2)         22.56     12.99     19.36 
 O(Fragment=2)         20.6      22.03     13. 
 H(Fragment=2)         20.23     21.2      13.28 
 H(Fragment=2)         21.23     21.8      12.31 
 O(Fragment=2)         19.49     14.19     24.72 
 H(Fragment=2)         18.85     14.53     24.1 
 H(Fragment=2)         18.97     13.7      25.36 
 O(Fragment=2)         27.38     22.37     19.89 
 H(Fragment=2)         26.53     22.28     19.46 
 H(Fragment=2)         27.7      23.23     19.63 
 O(Fragment=2)         23.06     19.9      26.37 
 H(Fragment=2)         22.67     19.02     26.34 
 H(Fragment=2)         24.       19.74     26.41 
 O(Fragment=2)         15.18     24.98     20.57 
 H(Fragment=2)         15.32     25.93     20.59 
 H(Fragment=2)         14.7      24.84     19.75 
 O(Fragment=2)         15.78     25.35     23.33 
 H(Fragment=2)         14.82     25.41     23.4 
 H(Fragment=2)         15.94     25.12     22.42 
 O(Fragment=2)         22.22     13.69     16.21 
 H(Fragment=2)         21.8      14.52     15.99 
 H(Fragment=2)         23.08     13.95     16.55 
 O(Fragment=2)         13.14     21.33     23.28 
 H(Fragment=2)         13.44     20.83     22.52 
 H(Fragment=2)         12.36     20.87     23.58 
 O(Fragment=2)         23.65     25.57     17.54 
 H(Fragment=2)         24.56     25.76     17.31 
 H(Fragment=2)         23.13     26.05     16.89 
 O(Fragment=2)         26.46     21.33     15.81 
 H(Fragment=2)         27.31     21.71     16.04 
 H(Fragment=2)         26.2      20.86     16.61 
 O(Fragment=2)         18.38     15.62     14.46 
 H(Fragment=2)         18.17     16.21     13.73 
 H(Fragment=2)         17.55     15.18     14.66 
 O(Fragment=2)         14.17     24.25     18.29 
 H(Fragment=2)         13.5      23.57     18.29 
 H(Fragment=2)         14.6      24.17     17.44 
 O(Fragment=2)         25.06     17.03     25.28 
 H(Fragment=2)         25.49     16.28     25.69 
 H(Fragment=2)         25.04     16.81     24.35 
 O(Fragment=2)         23.33     24.41     14.55 
 H(Fragment=2)         24.05     25.       14.78 
 H(Fragment=2)         23.7      23.53     14.62 
 O(Fragment=2)         26.29     18.32     15.26 
 H(Fragment=2)         25.72     19.09     15.29 
 H(Fragment=2)         26.56     18.18     16.17 
 O(Fragment=2)         24.37     16.46     13.92 
 H(Fragment=2)         25.05     16.85     14.47 
 H(Fragment=2)         23.57     16.95     14.13 
 O(Fragment=2)         25.55     14.11     21.61 
 H(Fragment=2)         24.86     14.17     22.27 
 H(Fragment=2)         25.39     14.85     21.03 
 O(Fragment=2)         12.72     20.64     15.83 
 H(Fragment=2)         12.57     19.79     16.24 
 H(Fragment=2)         13.64     20.85     16.03 
 O(Fragment=2)         17.05     13.43     16.68 
 H(Fragment=2)         16.84     12.56     17.02 
 H(Fragment=2)         18.01     13.47     16.71 
 O(Fragment=2)         17.85     23.03     12.37 
 H(Fragment=2)         17.81     22.55     13.2 
 H(Fragment=2)         18.58     23.64     12.48 
 O(Fragment=2)         17.63     26.14     25.57 
 H(Fragment=2)         17.65     25.3      25.1 
 H(Fragment=2)         18.55     26.3      25.8 
 O(Fragment=2)         25.39     22.39     25.95 
 H(Fragment=2)         25.17     21.56     25.52 
 H(Fragment=2)         25.07     22.3      26.84 
 O(Fragment=2)         13.34     16.76     24.34 
 H(Fragment=2)         13.63     17.16     25.16 
 H(Fragment=2)         14.14     16.7      23.81 
 O(Fragment=2)         18.11     20.99     28.42 
 H(Fragment=2)         18.21     20.8      27.49 
 H(Fragment=2)         17.18     20.83     28.6 
 O(Fragment=2)         19.25     17.46     27.3 
 H(Fragment=2)         19.99     16.87     27.14 
 H(Fragment=2)         19.19     17.51     28.25 
 O(Fragment=2)         24.65     21.18     13.71 
 H(Fragment=2)         25.26     21.39     14.42 
 H(Fragment=2)         25.21     20.98     12.96 
 O(Fragment=2)         11.54     20.97     19.48 
 H(Fragment=2)         11.       20.83     20.26 
 H(Fragment=2)         12.32     21.41     19.81 
 O(Fragment=2)         14.69     17.54     14.77 
 H(Fragment=2)         15.1      16.67     14.68 
 H(Fragment=2)         13.8      17.36     15.06 
 O(Fragment=2)         20.31     28.54     19.69 
 H(Fragment=2)         19.35     28.52     19.76 
 H(Fragment=2)         20.52     27.84     19.07 
 O(Fragment=2)         11.58     18.77     17.78 
 H(Fragment=2)         12.48     18.51     18. 
 H(Fragment=2)         11.39     19.51     18.36 
 O(Fragment=2)         20.67     25.01     13.65 
 H(Fragment=2)         21.53     25.12     14.05 
 H(Fragment=2)         20.75     24.23     13.11 
 O(Fragment=2)         16.56     12.09     22.51 
 H(Fragment=2)         16.57     13.04     22.39 
 H(Fragment=2)         17.44     11.81     22.26 
 O(Fragment=2)         25.99     24.71     24.58 
 H(Fragment=2)         25.68     23.98     25.1 
 H(Fragment=2)         25.69     24.52     23.69 
 O(Fragment=2)         21.91     14.55     26.75 
 H(Fragment=2)         21.42     13.83     27.13 
 H(Fragment=2)         21.71     14.51     25.81 
 O(Fragment=2)         19.97     22.88     28.58 
 H(Fragment=2)         20.22     22.92     27.66 
 H(Fragment=2)         19.17     22.34     28.59 
 O(Fragment=2)         22.71     28.3      21.21 
 H(Fragment=2)         21.86     28.34     20.77 
 H(Fragment=2)         22.61     27.6      21.86 
 O(Fragment=2)         13.63     13.62     21.42 
 H(Fragment=2)         14.49     13.97     21.65 
 H(Fragment=2)         13.32     14.18     20.71 
 O(Fragment=2)         17.51     27.83     15.88 
 H(Fragment=2)         17.98     28.65     15.75 
 H(Fragment=2)         18.13     27.27     16.36 
 O(Fragment=2)         25.04     14.34     16.43 
 H(Fragment=2)         25.19     14.23     15.5 
 H(Fragment=2)         25.91     14.53     16.8 
 O(Fragment=2)         11.84     23.05     17.46 
 H(Fragment=2)         12.24     22.22     17.73 
 H(Fragment=2)         11.33     23.33     18.22 
 O(Fragment=2)         15.37     25.85     16.16 
 H(Fragment=2)         16.03     26.53     16.1 
 H(Fragment=2)         14.61     26.29     16.54 
 O(Fragment=2)         13.54     19.19     26.3 
 H(Fragment=2)         13.26     19.33     27.2 
 H(Fragment=2)         14.47     19.43     26.3 
 O(Fragment=2)         18.7      17.96     11.92 
 H(Fragment=2)         19.24     18.27     11.18 
 H(Fragment=2)         18.82     17.01     11.92 
 O(Fragment=2)         19.39     12.71     15.66 
 H(Fragment=2)         18.86     12.45     14.91 
 H(Fragment=2)         20.29     12.66     15.34 
 O(Fragment=2)         11.64     16.29     21.49 
 H(Fragment=2)         11.08     16.09     22.25 
 H(Fragment=2)         12.24     16.96     21.8 
 O(Fragment=2)         26.33     25.74     18.4 
 H(Fragment=2)         26.3      25.71     19.35 
 H(Fragment=2)         27.2      26.09     18.19 
 O(Fragment=2)         28.44     22.38     22.42 
 H(Fragment=2)         28.17     23.19     22.85 
 H(Fragment=2)         28.04     22.41     21.56 
 O(Fragment=2)         16.       12.23     19.6 
 H(Fragment=2)         15.62     12.25     20.48 
 H(Fragment=2)         16.93     12.03     19.74 
 O(Fragment=2)         21.35     11.94     22.56 
 H(Fragment=2)         21.07     11.18     22.04 
 H(Fragment=2)         21.9      11.57     23.26 
 O(Fragment=2)         21.71     26.58     26.46 
 H(Fragment=2)         22.03     25.99     25.78 
 H(Fragment=2)         22.18     27.4      26.3 
 O(Fragment=2)         28.2      17.48     19.76 
 H(Fragment=2)         28.48     17.6      18.85 
 H(Fragment=2)         28.72     18.12     20.26 
 O(Fragment=2)         22.86     16.7      11.81 
 H(Fragment=2)         23.36     16.43     12.58 
 H(Fragment=2)         22.29     17.4      12.14 
 O(Fragment=2)         18.6      11.28     20.1 
 H(Fragment=2)         19.45     11.41     19.68 
 H(Fragment=2)         18.44     10.34     20.01 
 O(Fragment=2)         16.35     27.91     23.45 
 H(Fragment=2)         16.2      26.96     23.42 
 H(Fragment=2)         17.28     28.01     23.26 
 O(Fragment=2)         24.58     12.87     24.2 
 H(Fragment=2)         24.42     12.23     24.89 
 H(Fragment=2)         23.77     13.38     24.16 
 O(Fragment=2)         23.04     22.49     11.65 
 H(Fragment=2)         23.58     22.27     12.41 
 H(Fragment=2)         22.91     21.66     11.19 
 O(Fragment=2)         16.22     14.29     25.96 
 H(Fragment=2)         15.61     13.57     25.8 
 H(Fragment=2)         15.71     15.08     25.77 
 O(Fragment=2)         28.84     19.22     21.98 
 H(Fragment=2)         28.41     20.       22.32 
 H(Fragment=2)         29.77     19.41     22.06 
 O(Fragment=2)         14.13     13.       16.63 
 H(Fragment=2)         14.83     13.59     16.92 
 H(Fragment=2)         13.69     12.73     17.44 
 O(Fragment=2)         21.66     19.5      29.15 
 H(Fragment=2)         22.07     19.69     29.99 
 H(Fragment=2)         21.87     20.26     28.6 
 O(Fragment=2)         18.78     26.93     13.65 
 H(Fragment=2)         19.41     26.23     13.77 
 H(Fragment=2)         18.43     27.11     14.53 
 O(Fragment=2)         16.15     17.78     28.66 
 H(Fragment=2)         17.01     17.84     29.08 
 H(Fragment=2)         16.35     17.73     27.72 
 O(Fragment=2)         17.59     28.91     19.78 
 H(Fragment=2)         17.03     29.17     19.04 
 H(Fragment=2)         17.04     28.32     20.3 
 O(Fragment=2)         15.71     14.72     14.36 
 H(Fragment=2)         15.96     13.95     14.87 
 H(Fragment=2)         15.93     14.49     13.46 
 O(Fragment=2)         27.98     19.41     24.98 
 H(Fragment=2)         27.08     19.39     25.31 
 H(Fragment=2)         28.21     18.5      24.83 
 O(Fragment=2)         22.65     27.66     16.01 
 H(Fragment=2)         21.81     28.1      15.91 
 H(Fragment=2)         22.68     27.03     15.29 
 O(Fragment=2)         15.3      27.58     20.63 
 H(Fragment=2)         14.42     27.63     20.28 
 H(Fragment=2)         15.24     28.       21.49 
 O(Fragment=2)         22.84     23.89     27.55 
 H(Fragment=2)         22.44     23.51     28.33 
 H(Fragment=2)         22.99     24.81     27.78 
 O(Fragment=2)         27.26     14.72     19.36 
 H(Fragment=2)         27.75     15.53     19.52 
 H(Fragment=2)         27.05     14.39     20.23 
 O(Fragment=2)         25.85     19.65     26.78 
 H(Fragment=2)         25.52     20.3      27.4 
 H(Fragment=2)         25.79     18.82     27.25 
 O(Fragment=2)         13.34     23.02     13.55 
 H(Fragment=2)         13.77     22.49     12.88 
 H(Fragment=2)         13.45     22.51     14.36 
 O(Fragment=2)         26.86     25.97     21.32 
 H(Fragment=2)         27.62     26.44     21.65 
 H(Fragment=2)         26.11     26.39     21.73 
 O(Fragment=2)         14.68     22.63     26.88 
 H(Fragment=2)         14.78     21.72     27.17 
 H(Fragment=2)         15.41     23.09     27.28 
 O(Fragment=2)         25.54     27.51     22.96 
 H(Fragment=2)         25.68     27.13     23.83 
 H(Fragment=2)         24.63     27.29     22.74 
 O(Fragment=2)         16.49     23.9      28.49 
 H(Fragment=2)         16.98     23.72     27.69 
 H(Fragment=2)         17.08     24.46     29.01 
 O(Fragment=2)         28.54     18.72     17.07 
 H(Fragment=2)         28.8      18.07     16.42 
 H(Fragment=2)         29.37     19.11     17.36 
 
 NAtoms=    385 NQM=      385 NQMF=       0 NMMI=      0 NMMIF=      0
                NMic=       0 NMicF=      0.
                    Isotopes and Nuclear Properties:
 (Nuclear quadrupole moments (NQMom) in fm**2, nuclear magnetic moments (NMagM)
  in nuclear magnetons)

  Atom         1           2           3           4           5           6           7           8           9          10
 IAtWgt=          79          16           1           1          16           1           1          16           1           1
 AtmWgt=  78.9183361  15.9949146   1.0078250   1.0078250  15.9949146   1.0078250   1.0078250  15.9949146   1.0078250   1.0078250
 NucSpn=           3           0           1           1           0           1           1           0           1           1
 AtZEff=   0.0000000   0.0000000   0.0000000   0.0000000   0.0000000   0.0000000   0.0000000   0.0000000   0.0000000   0.0000000
 NQMom=   31.3000000   0.0000000   0.0000000   0.0000000   0.0000000   0.0000000   0.0000000   0.0000000   0.0000000   0.0000000
 NMagM=    2.1063990   0.0000000   2.7928460   2.7928460   0.0000000   2.7928460   2.7928460   0.0000000   2.7928460   2.7928460
 AtZNuc=  35.0000000   8.0000000   1.0000000   1.0000000   8.0000000   1.0000000   1.0000000   8.0000000   1.0000000   1.0000000

  Atom        11          12          13          14          15          16          17          18          19          20
 IAtWgt=          16           1           1          16           1           1          16           1           1          16
 AtmWgt=  15.9949146   1.0078250   1.0078250  15.9949146   1.0078250   1.0078250  15.9949146   1.0078250   1.0078250  15.9949146
 NucSpn=           0           1           1           0           1           1           0           1           1           0
 AtZEff=   0.0000000   0.0000000   0.0000000   0.0000000   0.0000000   0.0000000   0.0000000   0.0000000   0.0000000   0.0000000
 NQMom=    0.0000000   0.0000000   0.0000000   0.0000000   0.0000000   0.0000000   0.0000000   0.0000000   0.0000000   0.0000000
 NMagM=    0.0000000   2.7928460   2.7928460   0.0000000   2.7928460   2.7928460   0.0000000   2.7928460   2.7928460   0.0000000
 AtZNuc=   8.0000000   1.0000000   1.0000000   8.0000000   1.0000000   1.0000000   8.0000000   1.0000000   1.0000000   8.0000000

  Atom        21          22          23          24          25          26          27          28          29          30
 IAtWgt=           1           1          16           1           1          16           1           1          16           1
 AtmWgt=   1.0078250   1.0078250  15.9949146   1.0078250   1.0078250  15.9949146   1.0078250   1.0078250  15.9949146   1.0078250
 NucSpn=           1           1           0           1           1           0           1           1           0           1
 AtZEff=   0.0000000   0.0000000   0.0000000   0.0000000   0.0000000   0.0000000   0.0000000   0.0000000   0.0000000   0.0000000
 NQMom=    0.0000000   0.0000000   0.0000000   0.0000000   0.0000000   0.0000000   0.0000000   0.0000000   0.0000000   0.0000000
 NMagM=    2.7928460   2.7928460   0.0000000   2.7928460   2.7928460   0.0000000   2.7928460   2.7928460   0.0000000   2.7928460
 AtZNuc=   1.0000000   1.0000000   8.0000000   1.0000000   1.0000000   8.0000000   1.0000000   1.0000000   8.0000000   1.0000000

  Atom        31          32          33          34          35          36          37          38          39          40
 IAtWgt=           1          16           1           1          16           1           1          16           1           1
 AtmWgt=   1.0078250  15.9949146   1.0078250   1.0078250  15.9949146   1.0078250   1.0078250  15.9949146   1.0078250   1.0078250
 NucSpn=           1           0           1           1           0           1           1           0           1           1
 AtZEff=   0.0000000   0.0000000   0.0000000   0.0000000   0.0000000   0.0000000   0.0000000   0.0000000   0.0000000   0.0000000
 NQMom=    0.0000000   0.0000000   0.0000000   0.0000000   0.0000000   0.0000000   0.0000000   0.0000000   0.0000000   0.0000000
 NMagM=    2.7928460   0.0000000   2.7928460   2.7928460   0.0000000   2.7928460   2.7928460   0.0000000   2.7928460   2.7928460
 AtZNuc=   1.0000000   8.0000000   1.0000000   1.0000000   8.0000000   1.0000000   1.0000000   8.0000000   1.0000000   1.0000000

  Atom        41          42          43          44          45          46          47          48          49          50
 IAtWgt=          16           1           1          16           1           1          16           1           1          16
 AtmWgt=  15.9949146   1.0078250   1.0078250  15.9949146   1.0078250   1.0078250  15.9949146   1.0078250   1.0078250  15.9949146
 NucSpn=           0           1           1           0           1           1           0           1           1           0
 AtZEff=   0.0000000   0.0000000   0.0000000   0.0000000   0.0000000   0.0000000   0.0000000   0.0000000   0.0000000   0.0000000
 NQMom=    0.0000000   0.0000000   0.0000000   0.0000000   0.0000000   0.0000000   0.0000000   0.0000000   0.0000000   0.0000000
 NMagM=    0.0000000   2.7928460   2.7928460   0.0000000   2.7928460   2.7928460   0.0000000   2.7928460   2.7928460   0.0000000
 AtZNuc=   8.0000000   1.0000000   1.0000000   8.0000000   1.0000000   1.0000000   8.0000000   1.0000000   1.0000000   8.0000000

  Atom        51          52          53          54          55          56          57          58          59          60
 IAtWgt=           1           1          16           1           1          16           1           1          16           1
 AtmWgt=   1.0078250   1.0078250  15.9949146   1.0078250   1.0078250  15.9949146   1.0078250   1.0078250  15.9949146   1.0078250
 NucSpn=           1           1           0           1           1           0           1           1           0           1
 AtZEff=   0.0000000   0.0000000   0.0000000   0.0000000   0.0000000   0.0000000   0.0000000   0.0000000   0.0000000   0.0000000
 NQMom=    0.0000000   0.0000000   0.0000000   0.0000000   0.0000000   0.0000000   0.0000000   0.0000000   0.0000000   0.0000000
 NMagM=    2.7928460   2.7928460   0.0000000   2.7928460   2.7928460   0.0000000   2.7928460   2.7928460   0.0000000   2.7928460
 AtZNuc=   1.0000000   1.0000000   8.0000000   1.0000000   1.0000000   8.0000000   1.0000000   1.0000000   8.0000000   1.0000000

  Atom        61          62          63          64          65          66          67          68          69          70
 IAtWgt=           1          16           1           1          16           1           1          16           1           1
 AtmWgt=   1.0078250  15.9949146   1.0078250   1.0078250  15.9949146   1.0078250   1.0078250  15.9949146   1.0078250   1.0078250
 NucSpn=           1           0           1           1           0           1           1           0           1           1
 AtZEff=   0.0000000   0.0000000   0.0000000   0.0000000   0.0000000   0.0000000   0.0000000   0.0000000   0.0000000   0.0000000
 NQMom=    0.0000000   0.0000000   0.0000000   0.0000000   0.0000000   0.0000000   0.0000000   0.0000000   0.0000000   0.0000000
 NMagM=    2.7928460   0.0000000   2.7928460   2.7928460   0.0000000   2.7928460   2.7928460   0.0000000   2.7928460   2.7928460
 AtZNuc=   1.0000000   8.0000000   1.0000000   1.0000000   8.0000000   1.0000000   1.0000000   8.0000000   1.0000000   1.0000000

  Atom        71          72          73          74          75          76          77          78          79          80
 IAtWgt=          16           1           1          16           1           1          16           1           1          16
 AtmWgt=  15.9949146   1.0078250   1.0078250  15.9949146   1.0078250   1.0078250  15.9949146   1.0078250   1.0078250  15.9949146
 NucSpn=           0           1           1           0           1           1           0           1           1           0
 AtZEff=   0.0000000   0.0000000   0.0000000   0.0000000   0.0000000   0.0000000   0.0000000   0.0000000   0.0000000   0.0000000
 NQMom=    0.0000000   0.0000000   0.0000000   0.0000000   0.0000000   0.0000000   0.0000000   0.0000000   0.0000000   0.0000000
 NMagM=    0.0000000   2.7928460   2.7928460   0.0000000   2.7928460   2.7928460   0.0000000   2.7928460   2.7928460   0.0000000
 AtZNuc=   8.0000000   1.0000000   1.0000000   8.0000000   1.0000000   1.0000000   8.0000000   1.0000000   1.0000000   8.0000000

  Atom        81          82          83          84          85          86          87          88          89          90
 IAtWgt=           1           1          16           1           1          16           1           1          16           1
 AtmWgt=   1.0078250   1.0078250  15.9949146   1.0078250   1.0078250  15.9949146   1.0078250   1.0078250  15.9949146   1.0078250
 NucSpn=           1           1           0           1           1           0           1           1           0           1
 AtZEff=   0.0000000   0.0000000   0.0000000   0.0000000   0.0000000   0.0000000   0.0000000   0.0000000   0.0000000   0.0000000
 NQMom=    0.0000000   0.0000000   0.0000000   0.0000000   0.0000000   0.0000000   0.0000000   0.0000000   0.0000000   0.0000000
 NMagM=    2.7928460   2.7928460   0.0000000   2.7928460   2.7928460   0.0000000   2.7928460   2.7928460   0.0000000   2.7928460
 AtZNuc=   1.0000000   1.0000000   8.0000000   1.0000000   1.0000000   8.0000000   1.0000000   1.0000000   8.0000000   1.0000000

  Atom        91          92          93          94          95          96          97          98          99         100
 IAtWgt=           1          16           1           1          16           1           1          16           1           1
 AtmWgt=   1.0078250  15.9949146   1.0078250   1.0078250  15.9949146   1.0078250   1.0078250  15.9949146   1.0078250   1.0078250
 NucSpn=           1           0           1           1           0           1           1           0           1           1
 AtZEff=   0.0000000   0.0000000   0.0000000   0.0000000   0.0000000   0.0000000   0.0000000   0.0000000   0.0000000   0.0000000
 NQMom=    0.0000000   0.0000000   0.0000000   0.0000000   0.0000000   0.0000000   0.0000000   0.0000000   0.0000000   0.0000000
 NMagM=    2.7928460   0.0000000   2.7928460   2.7928460   0.0000000   2.7928460   2.7928460   0.0000000   2.7928460   2.7928460
 AtZNuc=   1.0000000   8.0000000   1.0000000   1.0000000   8.0000000   1.0000000   1.0000000   8.0000000   1.0000000   1.0000000

  Atom       101         102         103         104         105         106         107         108         109         110
 IAtWgt=          16           1           1          16           1           1          16           1           1          16
 AtmWgt=  15.9949146   1.0078250   1.0078250  15.9949146   1.0078250   1.0078250  15.9949146   1.0078250   1.0078250  15.9949146
 NucSpn=           0           1           1           0           1           1           0           1           1           0
 AtZEff=   0.0000000   0.0000000   0.0000000   0.0000000   0.0000000   0.0000000   0.0000000   0.0000000   0.0000000   0.0000000
 NQMom=    0.0000000   0.0000000   0.0000000   0.0000000   0.0000000   0.0000000   0.0000000   0.0000000   0.0000000   0.0000000
 NMagM=    0.0000000   2.7928460   2.7928460   0.0000000   2.7928460   2.7928460   0.0000000   2.7928460   2.7928460   0.0000000
 AtZNuc=   8.0000000   1.0000000   1.0000000   8.0000000   1.0000000   1.0000000   8.0000000   1.0000000   1.0000000   8.0000000

  Atom       111         112         113         114         115         116         117         118         119         120
 IAtWgt=           1           1          16           1           1          16           1           1          16           1
 AtmWgt=   1.0078250   1.0078250  15.9949146   1.0078250   1.0078250  15.9949146   1.0078250   1.0078250  15.9949146   1.0078250
 NucSpn=           1           1           0           1           1           0           1           1           0           1
 AtZEff=   0.0000000   0.0000000   0.0000000   0.0000000   0.0000000   0.0000000   0.0000000   0.0000000   0.0000000   0.0000000
 NQMom=    0.0000000   0.0000000   0.0000000   0.0000000   0.0000000   0.0000000   0.0000000   0.0000000   0.0000000   0.0000000
 NMagM=    2.7928460   2.7928460   0.0000000   2.7928460   2.7928460   0.0000000   2.7928460   2.7928460   0.0000000   2.7928460
 AtZNuc=   1.0000000   1.0000000   8.0000000   1.0000000   1.0000000   8.0000000   1.0000000   1.0000000   8.0000000   1.0000000

  Atom       121         122         123         124         125         126         127         128         129         130
 IAtWgt=           1          16           1           1          16           1           1          16           1           1
 AtmWgt=   1.0078250  15.9949146   1.0078250   1.0078250  15.9949146   1.0078250   1.0078250  15.9949146   1.0078250   1.0078250
 NucSpn=           1           0           1           1           0           1           1           0           1           1
 AtZEff=   0.0000000   0.0000000   0.0000000   0.0000000   0.0000000   0.0000000   0.0000000   0.0000000   0.0000000   0.0000000
 NQMom=    0.0000000   0.0000000   0.0000000   0.0000000   0.0000000   0.0000000   0.0000000   0.0000000   0.0000000   0.0000000
 NMagM=    2.7928460   0.0000000   2.7928460   2.7928460   0.0000000   2.7928460   2.7928460   0.0000000   2.7928460   2.7928460
 AtZNuc=   1.0000000   8.0000000   1.0000000   1.0000000   8.0000000   1.0000000   1.0000000   8.0000000   1.0000000   1.0000000

  Atom       131         132         133         134         135         136         137         138         139         140
 IAtWgt=          16           1           1          16           1           1          16           1           1          16
 AtmWgt=  15.9949146   1.0078250   1.0078250  15.9949146   1.0078250   1.0078250  15.9949146   1.0078250   1.0078250  15.9949146
 NucSpn=           0           1           1           0           1           1           0           1           1           0
 AtZEff=   0.0000000   0.0000000   0.0000000   0.0000000   0.0000000   0.0000000   0.0000000   0.0000000   0.0000000   0.0000000
 NQMom=    0.0000000   0.0000000   0.0000000   0.0000000   0.0000000   0.0000000   0.0000000   0.0000000   0.0000000   0.0000000
 NMagM=    0.0000000   2.7928460   2.7928460   0.0000000   2.7928460   2.7928460   0.0000000   2.7928460   2.7928460   0.0000000
 AtZNuc=   8.0000000   1.0000000   1.0000000   8.0000000   1.0000000   1.0000000   8.0000000   1.0000000   1.0000000   8.0000000

  Atom       141         142         143         144         145         146         147         148         149         150
 IAtWgt=           1           1          16           1           1          16           1           1          16           1
 AtmWgt=   1.0078250   1.0078250  15.9949146   1.0078250   1.0078250  15.9949146   1.0078250   1.0078250  15.9949146   1.0078250
 NucSpn=           1           1           0           1           1           0           1           1           0           1
 AtZEff=   0.0000000   0.0000000   0.0000000   0.0000000   0.0000000   0.0000000   0.0000000   0.0000000   0.0000000   0.0000000
 NQMom=    0.0000000   0.0000000   0.0000000   0.0000000   0.0000000   0.0000000   0.0000000   0.0000000   0.0000000   0.0000000
 NMagM=    2.7928460   2.7928460   0.0000000   2.7928460   2.7928460   0.0000000   2.7928460   2.7928460   0.0000000   2.7928460
 AtZNuc=   1.0000000   1.0000000   8.0000000   1.0000000   1.0000000   8.0000000   1.0000000   1.0000000   8.0000000   1.0000000

  Atom       151         152         153         154         155         156         157         158         159         160
 IAtWgt=           1          16           1           1          16           1           1          16           1           1
 AtmWgt=   1.0078250  15.9949146   1.0078250   1.0078250  15.9949146   1.0078250   1.0078250  15.9949146   1.0078250   1.0078250
 NucSpn=           1           0           1           1           0           1           1           0           1           1
 AtZEff=   0.0000000   0.0000000   0.0000000   0.0000000   0.0000000   0.0000000   0.0000000   0.0000000   0.0000000   0.0000000
 NQMom=    0.0000000   0.0000000   0.0000000   0.0000000   0.0000000   0.0000000   0.0000000   0.0000000   0.0000000   0.0000000
 NMagM=    2.7928460   0.0000000   2.7928460   2.7928460   0.0000000   2.7928460   2.7928460   0.0000000   2.7928460   2.7928460
 AtZNuc=   1.0000000   8.0000000   1.0000000   1.0000000   8.0000000   1.0000000   1.0000000   8.0000000   1.0000000   1.0000000

  Atom       161         162         163         164         165         166         167         168         169         170
 IAtWgt=          16           1           1          16           1           1          16           1           1          16
 AtmWgt=  15.9949146   1.0078250   1.0078250  15.9949146   1.0078250   1.0078250  15.9949146   1.0078250   1.0078250  15.9949146
 NucSpn=           0           1           1           0           1           1           0           1           1           0
 AtZEff=   0.0000000   0.0000000   0.0000000   0.0000000   0.0000000   0.0000000   0.0000000   0.0000000   0.0000000   0.0000000
 NQMom=    0.0000000   0.0000000   0.0000000   0.0000000   0.0000000   0.0000000   0.0000000   0.0000000   0.0000000   0.0000000
 NMagM=    0.0000000   2.7928460   2.7928460   0.0000000   2.7928460   2.7928460   0.0000000   2.7928460   2.7928460   0.0000000
 AtZNuc=   8.0000000   1.0000000   1.0000000   8.0000000   1.0000000   1.0000000   8.0000000   1.0000000   1.0000000   8.0000000

  Atom       171         172         173         174         175         176         177         178         179         180
 IAtWgt=           1           1          16           1           1          16           1           1          16           1
 AtmWgt=   1.0078250   1.0078250  15.9949146   1.0078250   1.0078250  15.9949146   1.0078250   1.0078250  15.9949146   1.0078250
 NucSpn=           1           1           0           1           1           0           1           1           0           1
 AtZEff=   0.0000000   0.0000000   0.0000000   0.0000000   0.0000000   0.0000000   0.0000000   0.0000000   0.0000000   0.0000000
 NQMom=    0.0000000   0.0000000   0.0000000   0.0000000   0.0000000   0.0000000   0.0000000   0.0000000   0.0000000   0.0000000
 NMagM=    2.7928460   2.7928460   0.0000000   2.7928460   2.7928460   0.0000000   2.7928460   2.7928460   0.0000000   2.7928460
 AtZNuc=   1.0000000   1.0000000   8.0000000   1.0000000   1.0000000   8.0000000   1.0000000   1.0000000   8.0000000   1.0000000

  Atom       181         182         183         184         185         186         187         188         189         190
 IAtWgt=           1          16           1           1          16           1           1          16           1           1
 AtmWgt=   1.0078250  15.9949146   1.0078250   1.0078250  15.9949146   1.0078250   1.0078250  15.9949146   1.0078250   1.0078250
 NucSpn=           1           0           1           1           0           1           1           0           1           1
 AtZEff=   0.0000000   0.0000000   0.0000000   0.0000000   0.0000000   0.0000000   0.0000000   0.0000000   0.0000000   0.0000000
 NQMom=    0.0000000   0.0000000   0.0000000   0.0000000   0.0000000   0.0000000   0.0000000   0.0000000   0.0000000   0.0000000
 NMagM=    2.7928460   0.0000000   2.7928460   2.7928460   0.0000000   2.7928460   2.7928460   0.0000000   2.7928460   2.7928460
 AtZNuc=   1.0000000   8.0000000   1.0000000   1.0000000   8.0000000   1.0000000   1.0000000   8.0000000   1.0000000   1.0000000

  Atom       191         192         193         194         195         196         197         198         199         200
 IAtWgt=          16           1           1          16           1           1          16           1           1          16
 AtmWgt=  15.9949146   1.0078250   1.0078250  15.9949146   1.0078250   1.0078250  15.9949146   1.0078250   1.0078250  15.9949146
 NucSpn=           0           1           1           0           1           1           0           1           1           0
 AtZEff=   0.0000000   0.0000000   0.0000000   0.0000000   0.0000000   0.0000000   0.0000000   0.0000000   0.0000000   0.0000000
 NQMom=    0.0000000   0.0000000   0.0000000   0.0000000   0.0000000   0.0000000   0.0000000   0.0000000   0.0000000   0.0000000
 NMagM=    0.0000000   2.7928460   2.7928460   0.0000000   2.7928460   2.7928460   0.0000000   2.7928460   2.7928460   0.0000000
 AtZNuc=   8.0000000   1.0000000   1.0000000   8.0000000   1.0000000   1.0000000   8.0000000   1.0000000   1.0000000   8.0000000

  Atom       201         202         203         204         205         206         207         208         209         210
 IAtWgt=           1           1          16           1           1          16           1           1          16           1
 AtmWgt=   1.0078250   1.0078250  15.9949146   1.0078250   1.0078250  15.9949146   1.0078250   1.0078250  15.9949146   1.0078250
 NucSpn=           1           1           0           1           1           0           1           1           0           1
 AtZEff=   0.0000000   0.0000000   0.0000000   0.0000000   0.0000000   0.0000000   0.0000000   0.0000000   0.0000000   0.0000000
 NQMom=    0.0000000   0.0000000   0.0000000   0.0000000   0.0000000   0.0000000   0.0000000   0.0000000   0.0000000   0.0000000
 NMagM=    2.7928460   2.7928460   0.0000000   2.7928460   2.7928460   0.0000000   2.7928460   2.7928460   0.0000000   2.7928460
 AtZNuc=   1.0000000   1.0000000   8.0000000   1.0000000   1.0000000   8.0000000   1.0000000   1.0000000   8.0000000   1.0000000

  Atom       211         212         213         214         215         216         217         218         219         220
 IAtWgt=           1          16           1           1          16           1           1          16           1           1
 AtmWgt=   1.0078250  15.9949146   1.0078250   1.0078250  15.9949146   1.0078250   1.0078250  15.9949146   1.0078250   1.0078250
 NucSpn=           1           0           1           1           0           1           1           0           1           1
 AtZEff=   0.0000000   0.0000000   0.0000000   0.0000000   0.0000000   0.0000000   0.0000000   0.0000000   0.0000000   0.0000000
 NQMom=    0.0000000   0.0000000   0.0000000   0.0000000   0.0000000   0.0000000   0.0000000   0.0000000   0.0000000   0.0000000
 NMagM=    2.7928460   0.0000000   2.7928460   2.7928460   0.0000000   2.7928460   2.7928460   0.0000000   2.7928460   2.7928460
 AtZNuc=   1.0000000   8.0000000   1.0000000   1.0000000   8.0000000   1.0000000   1.0000000   8.0000000   1.0000000   1.0000000

  Atom       221         222         223         224         225         226         227         228         229         230
 IAtWgt=          16           1           1          16           1           1          16           1           1          16
 AtmWgt=  15.9949146   1.0078250   1.0078250  15.9949146   1.0078250   1.0078250  15.9949146   1.0078250   1.0078250  15.9949146
 NucSpn=           0           1           1           0           1           1           0           1           1           0
 AtZEff=   0.0000000   0.0000000   0.0000000   0.0000000   0.0000000   0.0000000   0.0000000   0.0000000   0.0000000   0.0000000
 NQMom=    0.0000000   0.0000000   0.0000000   0.0000000   0.0000000   0.0000000   0.0000000   0.0000000   0.0000000   0.0000000
 NMagM=    0.0000000   2.7928460   2.7928460   0.0000000   2.7928460   2.7928460   0.0000000   2.7928460   2.7928460   0.0000000
 AtZNuc=   8.0000000   1.0000000   1.0000000   8.0000000   1.0000000   1.0000000   8.0000000   1.0000000   1.0000000   8.0000000

  Atom       231         232         233         234         235         236         237         238         239         240
 IAtWgt=           1           1          16           1           1          16           1           1          16           1
 AtmWgt=   1.0078250   1.0078250  15.9949146   1.0078250   1.0078250  15.9949146   1.0078250   1.0078250  15.9949146   1.0078250
 NucSpn=           1           1           0           1           1           0           1           1           0           1
 AtZEff=   0.0000000   0.0000000   0.0000000   0.0000000   0.0000000   0.0000000   0.0000000   0.0000000   0.0000000   0.0000000
 NQMom=    0.0000000   0.0000000   0.0000000   0.0000000   0.0000000   0.0000000   0.0000000   0.0000000   0.0000000   0.0000000
 NMagM=    2.7928460   2.7928460   0.0000000   2.7928460   2.7928460   0.0000000   2.7928460   2.7928460   0.0000000   2.7928460
 AtZNuc=   1.0000000   1.0000000   8.0000000   1.0000000   1.0000000   8.0000000   1.0000000   1.0000000   8.0000000   1.0000000

  Atom       241         242         243         244         245         246         247         248         249         250
 IAtWgt=           1          16           1           1          16           1           1          16           1           1
 AtmWgt=   1.0078250  15.9949146   1.0078250   1.0078250  15.9949146   1.0078250   1.0078250  15.9949146   1.0078250   1.0078250
 NucSpn=           1           0           1           1           0           1           1           0           1           1
 AtZEff=   0.0000000   0.0000000   0.0000000   0.0000000   0.0000000   0.0000000   0.0000000   0.0000000   0.0000000   0.0000000
 NQMom=    0.0000000   0.0000000   0.0000000   0.0000000   0.0000000   0.0000000   0.0000000   0.0000000   0.0000000   0.0000000
 NMagM=    2.7928460   0.0000000   2.7928460   2.7928460   0.0000000   2.7928460   2.7928460   0.0000000   2.7928460   2.7928460
 AtZNuc=   1.0000000   8.0000000   1.0000000   1.0000000   8.0000000   1.0000000   1.0000000   8.0000000   1.0000000   1.0000000

  Atom       251         252         253         254         255         256         257         258         259         260
 IAtWgt=          16           1           1          16           1           1          16           1           1          16
 AtmWgt=  15.9949146   1.0078250   1.0078250  15.9949146   1.0078250   1.0078250  15.9949146   1.0078250   1.0078250  15.9949146
 NucSpn=           0           1           1           0           1           1           0           1           1           0
 AtZEff=   0.0000000   0.0000000   0.0000000   0.0000000   0.0000000   0.0000000   0.0000000   0.0000000   0.0000000   0.0000000
 NQMom=    0.0000000   0.0000000   0.0000000   0.0000000   0.0000000   0.0000000   0.0000000   0.0000000   0.0000000   0.0000000
 NMagM=    0.0000000   2.7928460   2.7928460   0.0000000   2.7928460   2.7928460   0.0000000   2.7928460   2.7928460   0.0000000
 AtZNuc=   8.0000000   1.0000000   1.0000000   8.0000000   1.0000000   1.0000000   8.0000000   1.0000000   1.0000000   8.0000000

  Atom       261         262         263         264         265         266         267         268         269         270
 IAtWgt=           1           1          16           1           1          16           1           1          16           1
 AtmWgt=   1.0078250   1.0078250  15.9949146   1.0078250   1.0078250  15.9949146   1.0078250   1.0078250  15.9949146   1.0078250
 NucSpn=           1           1           0           1           1           0           1           1           0           1
 AtZEff=   0.0000000   0.0000000   0.0000000   0.0000000   0.0000000   0.0000000   0.0000000   0.0000000   0.0000000   0.0000000
 NQMom=    0.0000000   0.0000000   0.0000000   0.0000000   0.0000000   0.0000000   0.0000000   0.0000000   0.0000000   0.0000000
 NMagM=    2.7928460   2.7928460   0.0000000   2.7928460   2.7928460   0.0000000   2.7928460   2.7928460   0.0000000   2.7928460
 AtZNuc=   1.0000000   1.0000000   8.0000000   1.0000000   1.0000000   8.0000000   1.0000000   1.0000000   8.0000000   1.0000000

  Atom       271         272         273         274         275         276         277         278         279         280
 IAtWgt=           1          16           1           1          16           1           1          16           1           1
 AtmWgt=   1.0078250  15.9949146   1.0078250   1.0078250  15.9949146   1.0078250   1.0078250  15.9949146   1.0078250   1.0078250
 NucSpn=           1           0           1           1           0           1           1           0           1           1
 AtZEff=   0.0000000   0.0000000   0.0000000   0.0000000   0.0000000   0.0000000   0.0000000   0.0000000   0.0000000   0.0000000
 NQMom=    0.0000000   0.0000000   0.0000000   0.0000000   0.0000000   0.0000000   0.0000000   0.0000000   0.0000000   0.0000000
 NMagM=    2.7928460   0.0000000   2.7928460   2.7928460   0.0000000   2.7928460   2.7928460   0.0000000   2.7928460   2.7928460
 AtZNuc=   1.0000000   8.0000000   1.0000000   1.0000000   8.0000000   1.0000000   1.0000000   8.0000000   1.0000000   1.0000000

  Atom       281         282         283         284         285         286         287         288         289         290
 IAtWgt=          16           1           1          16           1           1          16           1           1          16
 AtmWgt=  15.9949146   1.0078250   1.0078250  15.9949146   1.0078250   1.0078250  15.9949146   1.0078250   1.0078250  15.9949146
 NucSpn=           0           1           1           0           1           1           0           1           1           0
 AtZEff=   0.0000000   0.0000000   0.0000000   0.0000000   0.0000000   0.0000000   0.0000000   0.0000000   0.0000000   0.0000000
 NQMom=    0.0000000   0.0000000   0.0000000   0.0000000   0.0000000   0.0000000   0.0000000   0.0000000   0.0000000   0.0000000
 NMagM=    0.0000000   2.7928460   2.7928460   0.0000000   2.7928460   2.7928460   0.0000000   2.7928460   2.7928460   0.0000000
 AtZNuc=   8.0000000   1.0000000   1.0000000   8.0000000   1.0000000   1.0000000   8.0000000   1.0000000   1.0000000   8.0000000

  Atom       291         292         293         294         295         296         297         298         299         300
 IAtWgt=           1           1          16           1           1          16           1           1          16           1
 AtmWgt=   1.0078250   1.0078250  15.9949146   1.0078250   1.0078250  15.9949146   1.0078250   1.0078250  15.9949146   1.0078250
 NucSpn=           1           1           0           1           1           0           1           1           0           1
 AtZEff=   0.0000000   0.0000000   0.0000000   0.0000000   0.0000000   0.0000000   0.0000000   0.0000000   0.0000000   0.0000000
 NQMom=    0.0000000   0.0000000   0.0000000   0.0000000   0.0000000   0.0000000   0.0000000   0.0000000   0.0000000   0.0000000
 NMagM=    2.7928460   2.7928460   0.0000000   2.7928460   2.7928460   0.0000000   2.7928460   2.7928460   0.0000000   2.7928460
 AtZNuc=   1.0000000   1.0000000   8.0000000   1.0000000   1.0000000   8.0000000   1.0000000   1.0000000   8.0000000   1.0000000

  Atom       301         302         303         304         305         306         307         308         309         310
 IAtWgt=           1          16           1           1          16           1           1          16           1           1
 AtmWgt=   1.0078250  15.9949146   1.0078250   1.0078250  15.9949146   1.0078250   1.0078250  15.9949146   1.0078250   1.0078250
 NucSpn=           1           0           1           1           0           1           1           0           1           1
 AtZEff=   0.0000000   0.0000000   0.0000000   0.0000000   0.0000000   0.0000000   0.0000000   0.0000000   0.0000000   0.0000000
 NQMom=    0.0000000   0.0000000   0.0000000   0.0000000   0.0000000   0.0000000   0.0000000   0.0000000   0.0000000   0.0000000
 NMagM=    2.7928460   0.0000000   2.7928460   2.7928460   0.0000000   2.7928460   2.7928460   0.0000000   2.7928460   2.7928460
 AtZNuc=   1.0000000   8.0000000   1.0000000   1.0000000   8.0000000   1.0000000   1.0000000   8.0000000   1.0000000   1.0000000

  Atom       311         312         313         314         315         316         317         318         319         320
 IAtWgt=          16           1           1          16           1           1          16           1           1          16
 AtmWgt=  15.9949146   1.0078250   1.0078250  15.9949146   1.0078250   1.0078250  15.9949146   1.0078250   1.0078250  15.9949146
 NucSpn=           0           1           1           0           1           1           0           1           1           0
 AtZEff=   0.0000000   0.0000000   0.0000000   0.0000000   0.0000000   0.0000000   0.0000000   0.0000000   0.0000000   0.0000000
 NQMom=    0.0000000   0.0000000   0.0000000   0.0000000   0.0000000   0.0000000   0.0000000   0.0000000   0.0000000   0.0000000
 NMagM=    0.0000000   2.7928460   2.7928460   0.0000000   2.7928460   2.7928460   0.0000000   2.7928460   2.7928460   0.0000000
 AtZNuc=   8.0000000   1.0000000   1.0000000   8.0000000   1.0000000   1.0000000   8.0000000   1.0000000   1.0000000   8.0000000

  Atom       321         322         323         324         325         326         327         328         329         330
 IAtWgt=           1           1          16           1           1          16           1           1          16           1
 AtmWgt=   1.0078250   1.0078250  15.9949146   1.0078250   1.0078250  15.9949146   1.0078250   1.0078250  15.9949146   1.0078250
 NucSpn=           1           1           0           1           1           0           1           1           0           1
 AtZEff=   0.0000000   0.0000000   0.0000000   0.0000000   0.0000000   0.0000000   0.0000000   0.0000000   0.0000000   0.0000000
 NQMom=    0.0000000   0.0000000   0.0000000   0.0000000   0.0000000   0.0000000   0.0000000   0.0000000   0.0000000   0.0000000
 NMagM=    2.7928460   2.7928460   0.0000000   2.7928460   2.7928460   0.0000000   2.7928460   2.7928460   0.0000000   2.7928460
 AtZNuc=   1.0000000   1.0000000   8.0000000   1.0000000   1.0000000   8.0000000   1.0000000   1.0000000   8.0000000   1.0000000

  Atom       331         332         333         334         335         336         337         338         339         340
 IAtWgt=           1          16           1           1          16           1           1          16           1           1
 AtmWgt=   1.0078250  15.9949146   1.0078250   1.0078250  15.9949146   1.0078250   1.0078250  15.9949146   1.0078250   1.0078250
 NucSpn=           1           0           1           1           0           1           1           0           1           1
 AtZEff=   0.0000000   0.0000000   0.0000000   0.0000000   0.0000000   0.0000000   0.0000000   0.0000000   0.0000000   0.0000000
 NQMom=    0.0000000   0.0000000   0.0000000   0.0000000   0.0000000   0.0000000   0.0000000   0.0000000   0.0000000   0.0000000
 NMagM=    2.7928460   0.0000000   2.7928460   2.7928460   0.0000000   2.7928460   2.7928460   0.0000000   2.7928460   2.7928460
 AtZNuc=   1.0000000   8.0000000   1.0000000   1.0000000   8.0000000   1.0000000   1.0000000   8.0000000   1.0000000   1.0000000

  Atom       341         342         343         344         345         346         347         348         349         350
 IAtWgt=          16           1           1          16           1           1          16           1           1          16
 AtmWgt=  15.9949146   1.0078250   1.0078250  15.9949146   1.0078250   1.0078250  15.9949146   1.0078250   1.0078250  15.9949146
 NucSpn=           0           1           1           0           1           1           0           1           1           0
 AtZEff=   0.0000000   0.0000000   0.0000000   0.0000000   0.0000000   0.0000000   0.0000000   0.0000000   0.0000000   0.0000000
 NQMom=    0.0000000   0.0000000   0.0000000   0.0000000   0.0000000   0.0000000   0.0000000   0.0000000   0.0000000   0.0000000
 NMagM=    0.0000000   2.7928460   2.7928460   0.0000000   2.7928460   2.7928460   0.0000000   2.7928460   2.7928460   0.0000000
 AtZNuc=   8.0000000   1.0000000   1.0000000   8.0000000   1.0000000   1.0000000   8.0000000   1.0000000   1.0000000   8.0000000

  Atom       351         352         353         354         355         356         357         358         359         360
 IAtWgt=           1           1          16           1           1          16           1           1          16           1
 AtmWgt=   1.0078250   1.0078250  15.9949146   1.0078250   1.0078250  15.9949146   1.0078250   1.0078250  15.9949146   1.0078250
 NucSpn=           1           1           0           1           1           0           1           1           0           1
 AtZEff=   0.0000000   0.0000000   0.0000000   0.0000000   0.0000000   0.0000000   0.0000000   0.0000000   0.0000000   0.0000000
 NQMom=    0.0000000   0.0000000   0.0000000   0.0000000   0.0000000   0.0000000   0.0000000   0.0000000   0.0000000   0.0000000
 NMagM=    2.7928460   2.7928460   0.0000000   2.7928460   2.7928460   0.0000000   2.7928460   2.7928460   0.0000000   2.7928460
 AtZNuc=   1.0000000   1.0000000   8.0000000   1.0000000   1.0000000   8.0000000   1.0000000   1.0000000   8.0000000   1.0000000

  Atom       361         362         363         364         365         366         367         368         369         370
 IAtWgt=           1          16           1           1          16           1           1          16           1           1
 AtmWgt=   1.0078250  15.9949146   1.0078250   1.0078250  15.9949146   1.0078250   1.0078250  15.9949146   1.0078250   1.0078250
 NucSpn=           1           0           1           1           0           1           1           0           1           1
 AtZEff=   0.0000000   0.0000000   0.0000000   0.0000000   0.0000000   0.0000000   0.0000000   0.0000000   0.0000000   0.0000000
 NQMom=    0.0000000   0.0000000   0.0000000   0.0000000   0.0000000   0.0000000   0.0000000   0.0000000   0.0000000   0.0000000
 NMagM=    2.7928460   0.0000000   2.7928460   2.7928460   0.0000000   2.7928460   2.7928460   0.0000000   2.7928460   2.7928460
 AtZNuc=   1.0000000   8.0000000   1.0000000   1.0000000   8.0000000   1.0000000   1.0000000   8.0000000   1.0000000   1.0000000

  Atom       371         372         373         374         375         376         377         378         379         380
 IAtWgt=          16           1           1          16           1           1          16           1           1          16
 AtmWgt=  15.9949146   1.0078250   1.0078250  15.9949146   1.0078250   1.0078250  15.9949146   1.0078250   1.0078250  15.9949146
 NucSpn=           0           1           1           0           1           1           0           1           1           0
 AtZEff=   0.0000000   0.0000000   0.0000000   0.0000000   0.0000000   0.0000000   0.0000000   0.0000000   0.0000000   0.0000000
 NQMom=    0.0000000   0.0000000   0.0000000   0.0000000   0.0000000   0.0000000   0.0000000   0.0000000   0.0000000   0.0000000
 NMagM=    0.0000000   2.7928460   2.7928460   0.0000000   2.7928460   2.7928460   0.0000000   2.7928460   2.7928460   0.0000000
 AtZNuc=   8.0000000   1.0000000   1.0000000   8.0000000   1.0000000   1.0000000   8.0000000   1.0000000   1.0000000   8.0000000

  Atom       381         382         383         384         385
 IAtWgt=           1           1          16           1           1
 AtmWgt=   1.0078250   1.0078250  15.9949146   1.0078250   1.0078250
 NucSpn=           1           1           0           1           1
 AtZEff=   0.0000000   0.0000000   0.0000000   0.0000000   0.0000000
 NQMom=    0.0000000   0.0000000   0.0000000   0.0000000   0.0000000
 NMagM=    2.7928460   2.7928460   0.0000000   2.7928460   2.7928460
 AtZNuc=   1.0000000   1.0000000   8.0000000   1.0000000   1.0000000
 Leave Link  101 at Tue May  8 21:58:38 2018, MaxMem= 14763950080 cpu:        54.4
 (Enter /cm/shared/gaussian/g09.e01/intel64-sandybridge/g09/l103.exe)

 GradGradGradGradGradGradGradGradGradGradGradGradGradGradGradGradGradGrad
 Berny optimization.
 Initialization pass.
 Trust Radius=3.00D-01 FncErr=1.00D-07 GrdErr=1.00D-07
 Number of steps in this run=      2 maximum allowed number of steps=      2.
 GradGradGradGradGradGradGradGradGradGradGradGradGradGradGradGradGradGrad

 Leave Link  103 at Tue May  8 21:58:38 2018, MaxMem= 14763950080 cpu:         3.7
 (Enter /cm/shared/gaussian/g09.e01/intel64-sandybridge/g09/l202.exe)
 Symmetry turned off by external request.
 Stoichiometry    BrH256O128(1-)
 Framework group  C1[X(BrH256O128)]
 Deg. of freedom  1149
 Full point group                 C1      NOp   1
                          Input orientation:                          
 ---------------------------------------------------------------------
 Center     Atomic      Atomic             Coordinates (Angstroms)
 Number     Number       Type             X           Y           Z
 ---------------------------------------------------------------------
      1         35           0       20.000000   20.000000   20.000000
      2          8           0       22.930000   19.140000   21.060000
      3          1           0       22.030000   19.470000   21.070000
      4          1           0       23.470000   19.910000   20.930000
      5          8           0       20.390000   21.790000   17.200000
      6          1           0       21.000000   21.410000   16.570000
      7          1           0       20.400000   21.190000   17.940000
      8          8           0       22.350000   22.040000   21.320000
      9          1           0       21.740000   21.420000   20.920000
     10          1           0       22.320000   21.830000   22.250000
     11          8           0       17.000000   19.300000   18.860000
     12          1           0       16.780000   20.140000   19.280000
     13          1           0       17.940000   19.210000   18.980000
     14          8           0       19.550000   18.490000   22.850000
     15          1           0       19.250000   18.990000   22.090000
     16          1           0       20.490000   18.360000   22.690000
     17          8           0       21.040000   16.650000   18.680000
     18          1           0       20.390000   15.980000   18.880000
     19          1           0       20.770000   17.410000   19.190000
     20          8           0       16.430000   21.580000   20.090000
     21          1           0       17.240000   21.390000   20.570000
     22          1           0       16.700000   22.120000   19.350000
     23          8           0       17.630000   22.270000   17.630000
     24          1           0       17.540000   23.030000   17.060000
     25          1           0       18.570000   22.190000   17.780000
     26          8           0       22.400000   17.260000   22.820000
     27          1           0       22.810000   16.560000   22.310000
     28          1           0       22.470000   18.030000   22.270000
     29          8           0       18.530000   15.740000   22.120000
     30          1           0       18.650000   15.630000   21.180000
     31          1           0       18.640000   16.680000   22.270000
     32          8           0       23.770000   17.090000   17.810000
     33          1           0       23.830000   16.210000   17.460000
     34          1           0       22.880000   17.170000   18.140000
     35          8           0       17.710000   18.910000   15.620000
     36          1           0       16.850000   18.670000   15.280000
     37          1           0       17.530000   19.540000   16.320000
     38          8           0       22.680000   21.140000   16.120000
     39          1           0       23.120000   21.030000   15.280000
     40          1           0       23.240000   20.670000   16.740000
     41          8           0       20.910000   24.280000   16.680000
     42          1           0       20.540000   23.430000   16.910000
     43          1           0       21.730000   24.080000   16.230000
     44          8           0       23.410000   15.760000   20.410000
     45          1           0       23.310000   14.830000   20.190000
     46          1           0       22.720000   16.200000   19.910000
     47          8           0       19.080000   19.460000   25.480000
     48          1           0       19.090000   18.710000   26.080000
     49          1           0       19.140000   19.070000   24.610000
     50          8           0       20.960000   16.370000   15.890000
     51          1           0       21.080000   16.410000   16.840000
     52          1           0       20.120000   15.930000   15.770000
     53          8           0       17.970000   25.090000   19.510000
     54          1           0       17.050000   24.950000   19.290000
     55          1           0       18.100000   24.630000   20.340000
     56          8           0       15.180000   21.520000   16.850000
     57          1           0       15.450000   22.100000   16.140000
     58          1           0       15.940000   21.460000   17.420000
     59          8           0       25.120000   19.530000   17.790000
     60          1           0       25.610000   19.770000   18.580000
     61          1           0       24.540000   18.820000   18.070000
     62          8           0       24.970000   22.720000   18.410000
     63          1           0       24.030000   22.600000   18.310000
     64          1           0       25.120000   23.630000   18.150000
     65          8           0       14.110000   18.570000   18.790000
     66          1           0       15.030000   18.750000   18.940000
     67          1           0       14.100000   17.700000   18.390000
     68          8           0       22.930000   21.490000   24.140000
     69          1           0       22.720000   21.130000   25.000000
     70          1           0       23.710000   21.000000   23.860000
     71          8           0       19.530000   19.690000   13.910000
     72          1           0       19.040000   19.150000   13.290000
     73          1           0       19.090000   19.540000   14.750000
     74          8           0       16.250000   16.280000   17.000000
     75          1           0       16.540000   15.730000   16.260000
     76          1           0       16.670000   17.120000   16.850000
     77          8           0       22.480000   25.650000   20.240000
     78          1           0       22.530000   26.170000   19.430000
     79          1           0       22.700000   24.760000   19.970000
     80          8           0       16.650000   16.740000   24.570000
     81          1           0       16.940000   17.480000   24.040000
     82          1           0       17.320000   16.630000   25.240000
     83          8           0       19.570000   14.520000   18.640000
     84          1           0       19.780000   14.060000   17.820000
     85          1           0       20.340000   14.380000   19.190000
     86          8           0       13.690000   22.260000   20.550000
     87          1           0       14.570000   21.990000   20.290000
     88          1           0       13.820000   22.740000   21.370000
     89          8           0       25.140000   23.600000   22.370000
     90          1           0       24.300000   23.150000   22.380000
     91          1           0       25.530000   23.360000   21.530000
     92          8           0       18.830000   23.170000   14.880000
     93          1           0       19.560000   23.790000   14.900000
     94          1           0       19.230000   22.330000   14.700000
     95          8           0       19.970000   24.320000   24.200000
     96          1           0       20.130000   24.830000   23.410000
     97          1           0       20.820000   23.930000   24.420000
     98          8           0       17.850000   22.790000   25.710000
     99          1           0       17.650000   22.060000   25.120000
    100          1           0       18.660000   23.160000   25.360000
    101          8           0       21.680000   17.180000   25.700000
    102          1           0       22.210000   16.520000   26.140000
    103          1           0       22.220000   17.470000   24.970000
    104          8           0       20.580000   21.410000   26.360000
    105          1           0       19.970000   20.750000   26.030000
    106          1           0       21.450000   21.070000   26.150000
    107          8           0       25.110000   20.220000   23.580000
    108          1           0       25.100000   19.320000   23.260000
    109          1           0       25.770000   20.660000   23.050000
    110          8           0       22.000000   18.240000   13.930000
    111          1           0       21.470000   19.040000   13.960000
    112          1           0       21.640000   17.680000   14.610000
    113          8           0       22.090000   14.400000   23.820000
    114          1           0       21.470000   13.670000   23.800000
    115          1           0       21.600000   15.150000   23.500000
    116          8           0       22.760000   23.980000   24.790000
    117          1           0       22.870000   24.100000   25.730000
    118          1           0       23.080000   23.090000   24.630000
    119          8           0       16.020000   14.770000   22.400000
    120          1           0       16.920000   15.040000   22.580000
    121          1           0       15.530000   15.600000   22.380000
    122          8           0       19.050000   26.300000   17.270000
    123          1           0       19.850000   25.800000   17.100000
    124          1           0       18.720000   25.960000   18.100000
    125          8           0       14.440000   16.730000   21.480000
    126          1           0       14.650000   16.410000   20.600000
    127          1           0       14.220000   17.650000   21.360000
    128          8           0       15.550000   21.690000   24.310000
    129          1           0       14.670000   21.500000   23.990000
    130          1           0       15.410000   22.270000   25.050000
    131          8           0       26.450000   19.800000   20.200000
    132          1           0       26.970000   19.030000   19.980000
    133          1           0       27.080000   20.520000   20.240000
    134          8           0       16.260000   19.570000   25.870000
    135          1           0       17.210000   19.550000   25.840000
    136          1           0       16.000000   20.220000   25.230000
    137          8           0       19.980000   26.120000   22.300000
    138          1           0       19.400000   26.840000   22.550000
    139          1           0       20.280000   26.330000   21.420000
    140          8           0       23.050000   26.000000   22.980000
    141          1           0       23.390000   25.310000   23.550000
    142          1           0       22.470000   25.540000   22.370000
    143          8           0       15.160000   14.950000   19.130000
    144          1           0       15.690000   15.310000   18.410000
    145          1           0       15.510000   14.070000   19.270000
    146          8           0       13.270000   19.040000   21.360000
    147          1           0       12.340000   19.220000   21.460000
    148          1           0       13.430000   19.070000   20.420000
    149          8           0       16.060000   23.470000   15.380000
    150          1           0       15.770000   24.370000   15.540000
    151          1           0       17.000000   23.540000   15.220000
    152          8           0       25.850000   17.650000   22.380000
    153          1           0       26.520000   17.100000   22.790000
    154          1           0       26.100000   17.690000   21.460000
    155          8           0       21.990000   13.520000   19.920000
    156          1           0       21.810000   12.970000   20.680000
    157          1           0       22.560000   12.990000   19.360000
    158          8           0       20.600000   22.030000   13.000000
    159          1           0       20.230000   21.200000   13.280000
    160          1           0       21.230000   21.800000   12.310000
    161          8           0       19.490000   14.190000   24.720000
    162          1           0       18.850000   14.530000   24.100000
    163          1           0       18.970000   13.700000   25.360000
    164          8           0       27.380000   22.370000   19.890000
    165          1           0       26.530000   22.280000   19.460000
    166          1           0       27.700000   23.230000   19.630000
    167          8           0       23.060000   19.900000   26.370000
    168          1           0       22.670000   19.020000   26.340000
    169          1           0       24.000000   19.740000   26.410000
    170          8           0       15.180000   24.980000   20.570000
    171          1           0       15.320000   25.930000   20.590000
    172          1           0       14.700000   24.840000   19.750000
    173          8           0       15.780000   25.350000   23.330000
    174          1           0       14.820000   25.410000   23.400000
    175          1           0       15.940000   25.120000   22.420000
    176          8           0       22.220000   13.690000   16.210000
    177          1           0       21.800000   14.520000   15.990000
    178          1           0       23.080000   13.950000   16.550000
    179          8           0       13.140000   21.330000   23.280000
    180          1           0       13.440000   20.830000   22.520000
    181          1           0       12.360000   20.870000   23.580000
    182          8           0       23.650000   25.570000   17.540000
    183          1           0       24.560000   25.760000   17.310000
    184          1           0       23.130000   26.050000   16.890000
    185          8           0       26.460000   21.330000   15.810000
    186          1           0       27.310000   21.710000   16.040000
    187          1           0       26.200000   20.860000   16.610000
    188          8           0       18.380000   15.620000   14.460000
    189          1           0       18.170000   16.210000   13.730000
    190          1           0       17.550000   15.180000   14.660000
    191          8           0       14.170000   24.250000   18.290000
    192          1           0       13.500000   23.570000   18.290000
    193          1           0       14.600000   24.170000   17.440000
    194          8           0       25.060000   17.030000   25.280000
    195          1           0       25.490000   16.280000   25.690000
    196          1           0       25.040000   16.810000   24.350000
    197          8           0       23.330000   24.410000   14.550000
    198          1           0       24.050000   25.000000   14.780000
    199          1           0       23.700000   23.530000   14.620000
    200          8           0       26.290000   18.320000   15.260000
    201          1           0       25.720000   19.090000   15.290000
    202          1           0       26.560000   18.180000   16.170000
    203          8           0       24.370000   16.460000   13.920000
    204          1           0       25.050000   16.850000   14.470000
    205          1           0       23.570000   16.950000   14.130000
    206          8           0       25.550000   14.110000   21.610000
    207          1           0       24.860000   14.170000   22.270000
[...]
   Z335      55.08552  -0.00646   0.00000  -0.00512  -0.00512  55.08039
   X336      41.70626   0.00329   0.00000   0.00041   0.00066  41.70691
   Y336      37.20871   0.00516   0.00000   0.00585   0.00571  37.21442
   Z336      56.67289   0.00828   0.00000   0.00482   0.00481  56.67770
   X337      41.32831  -0.00467   0.00000  -0.01018  -0.00996  41.31835
   Y337      38.28585   0.00530   0.00000   0.00299   0.00285  38.28871
   Z337      54.04617  -0.00396   0.00000  -0.00335  -0.00336  54.04281
   X338      35.48906  -0.00702   0.00000   0.00160   0.00161  35.49066
   Y338      50.89032   0.01777   0.00000   0.01506   0.01497  50.90530
   Z338      25.79476  -0.00580   0.00000  -0.00609  -0.00603  25.78873
   X339      36.67958   0.01203   0.00000   0.00674   0.00674  36.68632
   Y339      49.56752  -0.01425   0.00000  -0.00887  -0.00897  49.55855
   Z339      26.02153  -0.00140   0.00000  -0.00534  -0.00529  26.01624
   X340      34.82765  -0.00760   0.00000  -0.01279  -0.01277  34.81489
   Y340      51.23048  -0.00135   0.00000  -0.00224  -0.00232  51.22815
   Z340      27.45772  -0.00355   0.00000  -0.00711  -0.00705  27.45068
   X341      30.51908  -0.00631   0.00000  -0.00463  -0.00444  30.51463
   Y341      33.59933   0.00046   0.00000   0.00093   0.00088  33.60021
   Z341      54.15955   0.00264   0.00000   0.00122   0.00134  54.16089
   X342      32.14424   0.00430   0.00000   0.00251   0.00270  32.14694
   Y342      33.71271   0.00171   0.00000   0.00268   0.00262  33.71533
   Z342      54.95324  -0.00025   0.00000  -0.00193  -0.00183  54.95140
   X343      30.89702   0.00092   0.00000  -0.00028  -0.00012  30.89691
   Y343      33.50484   0.00195   0.00000   0.00356   0.00351  33.50835
   Z343      52.38321  -0.00449   0.00000  -0.00322  -0.00311  52.38010
   X344      33.24028   0.01182   0.00000   0.00951   0.00967  33.24995
   Y344      54.63198   0.00640   0.00000   0.00425   0.00418  54.63616
   Z344      37.37878  -0.00084   0.00000   0.00182   0.00190  37.38068
   X345      32.18204   0.00036   0.00000   0.00332   0.00347  32.18551
   Y345      55.12331  -0.00328   0.00000  -0.00474  -0.00480  55.11851
   Z345      35.98039   0.00016   0.00000   0.00077   0.00087  35.98125
   X346      32.20093  -0.00993   0.00000  -0.00948  -0.00932  32.19161
   Y346      53.51704  -0.00540   0.00000  -0.00322  -0.00329  53.51376
   Z346      38.36144  -0.00174   0.00000  -0.00699  -0.00690  38.35454
   X347      29.68760   0.00119   0.00000   0.00919   0.00903  29.69663
   Y347      27.81677   0.01496   0.00000   0.00898   0.00893  27.82570
   Z347      27.13647   0.00088   0.00000   0.00154   0.00167  27.13813
   X348      30.16003  -0.00112   0.00000  -0.00646  -0.00662  30.15341
   Y348      26.36168  -0.01487   0.00000  -0.01093  -0.01098  26.35070
   Z348      28.10023   0.01432   0.00000   0.01452   0.01464  28.11487
   X349      30.10334  -0.00112   0.00000  -0.00403  -0.00421  30.09912
   Y349      27.38213  -0.00347   0.00000  -0.00369  -0.00374  27.37839
   Z349      25.43571  -0.01114   0.00000  -0.00951  -0.00939  25.42632
   X350      52.87454   0.00930   0.00000   0.00684   0.00697  52.88151
   Y350      36.67958   0.01293   0.00000   0.00778   0.00756  36.68714
   Z350      47.20536  -0.00486   0.00000  -0.00588  -0.00601  47.19934
   X351      51.17378  -0.00816   0.00000  -0.00318  -0.00304  51.17075
   Y351      36.64179   0.00164   0.00000   0.00445   0.00424  36.64603
   Z351      47.82897   0.00334   0.00000   0.00188   0.00177  47.83073
   X352      53.30917   0.00065   0.00000  -0.00102  -0.00090  53.30827
   Y352      34.95993  -0.01290   0.00000  -0.00874  -0.00897  34.95096
   Z352      46.92190  -0.00324   0.00000  -0.00375  -0.00389  46.91801
   X353      42.80230   0.01391   0.00000   0.00781   0.00787  42.81017
   Y353      52.26982  -0.00448   0.00000  -0.00479  -0.00493  52.26489
   Z353      30.25452   0.00619   0.00000   0.00204   0.00202  30.25653
   X354      41.21493  -0.01296   0.00000  -0.00787  -0.00780  41.20712
   Y354      53.10130   0.00364   0.00000   0.00007  -0.00007  53.10124
   Z354      30.06554  -0.00186   0.00000   0.00002   0.00001  30.06555
   X355      42.85899  -0.00475   0.00000  -0.00661  -0.00657  42.85242
   Y355      51.07930   0.00008   0.00000   0.00382   0.00367  51.08297
   Z355      28.89391  -0.01190   0.00000  -0.01493  -0.01495  28.87896
   X356      28.91281   0.01199   0.00000   0.00444   0.00460  28.91741
   Y356      52.11865   0.00509   0.00000   0.01583   0.01579  52.13443
   Z356      38.98505  -0.00543   0.00000  -0.00263  -0.00250  38.98255
   X357      27.24985  -0.01711   0.00000  -0.01329  -0.01314  27.23671
   Y357      52.21313   0.00332   0.00000   0.00536   0.00533  52.21846
   Z357      38.32365  -0.00905   0.00000  -0.00792  -0.00777  38.31588
   X358      28.79943   0.00586   0.00000   0.00962   0.00980  28.80923
   Y358      52.91233   0.00401   0.00000   0.00010   0.00006  52.91239
   Z358      40.61021   0.02265   0.00000   0.02410   0.02423  40.63444
   X359      43.16134   0.01530   0.00000   0.02093   0.02118  43.18253
   Y359      45.14556  -0.00319   0.00000  -0.00364  -0.00379  45.14176
   Z359      52.06195  -0.00628   0.00000   0.00262   0.00260  52.06455
   X360      42.40545  -0.01405   0.00000  -0.01852  -0.01826  42.38719
   Y360      44.42746  -0.00431   0.00000  -0.00235  -0.00250  44.42497
   Z360      53.53594   0.00666   0.00000   0.00015   0.00013  53.53607
   X361      43.44480  -0.00444   0.00000  -0.00862  -0.00835  43.43645
   Y361      46.88411   0.00909   0.00000   0.00913   0.00898  46.89309
   Z361      52.49659   0.00177   0.00000   0.00095   0.00092  52.49751
   X362      51.51393  -0.00106   0.00000  -0.00037  -0.00042  51.51351
   Y362      27.81677  -0.00247   0.00000  -0.00125  -0.00147  27.81530
   Z362      36.58510  -0.01888   0.00000  -0.01228  -0.01240  36.57270
   X363      52.43990   0.00166   0.00000  -0.00150  -0.00154  52.43836
   Y363      29.34745   0.00806   0.00000   0.00665   0.00643  29.35388
   Z363      36.88745   0.00616   0.00000   0.00740   0.00727  36.89473
   X364      51.11709  -0.00159   0.00000   0.00032   0.00028  51.11737
   Y364      27.19316  -0.00727   0.00000  -0.00765  -0.00786  27.18530
   Z364      38.22916   0.01264   0.00000   0.00509   0.00498  38.23414
   X365      48.84942  -0.00353   0.00000  -0.00904  -0.00887  48.84055
   Y365      37.13312   0.00169   0.00000  -0.00054  -0.00073  37.13239
   Z365      50.60687  -0.00650   0.00000  -0.00242  -0.00250  50.60436
   X366      48.22581   0.00421   0.00000   0.00928   0.00948  48.23529
   Y366      38.36144   0.00660   0.00000   0.00674   0.00655  38.36799
   Z366      51.77850   0.00837   0.00000   0.01026   0.01018  51.78868
   X367      48.73604  -0.00114   0.00000  -0.00156  -0.00139  48.73465
   Y367      35.56465  -0.01075   0.00000  -0.00986  -0.01005  35.55460
   Z367      51.49504   0.00384   0.00000   0.00215   0.00206  51.49710
   X368      25.20895  -0.00515   0.00000  -0.00334  -0.00340  25.20555
   Y368      43.50150   0.00903   0.00000   0.00705   0.00704  43.50854
   Z368      25.60579   0.00304   0.00000   0.00121   0.00139  25.60718
   X369      26.02153   0.00563   0.00000   0.00530   0.00522  26.02675
   Y369      42.49994  -0.00538   0.00000  -0.00326  -0.00328  42.49666
   Z369      24.33967  -0.00211   0.00000   0.00161   0.00178  24.34145
   X370      25.41682  -0.00319   0.00000  -0.00642  -0.00646  25.41035
   Y370      42.53774  -0.00353   0.00000  -0.00357  -0.00359  42.53415
   Z370      27.13647   0.00014   0.00000  -0.00151  -0.00134  27.13513
   X371      50.75804   0.01518   0.00000   0.00802   0.00817  50.76622
   Y371      49.07619  -0.03451   0.00000  -0.02496  -0.02517  49.05102
   Z371      40.28896  -0.03635   0.00000  -0.03247  -0.03258  40.25638
   X372      52.19424   0.00339   0.00000  -0.00305  -0.00289  52.19135
   Y372      49.96436   0.00869   0.00000   0.00289   0.00267  49.96703
   Z372      40.91257   0.00614   0.00000   0.00121   0.00109  40.91366
   X373      49.34075  -0.01375   0.00000   0.00278   0.00294  49.34369
   Y373      49.86987   0.01763   0.00000   0.00870   0.00850  49.87837
   Z373      41.06375   0.02107   0.00000   0.01599   0.01590  41.07964
   X374      27.74118  -0.01592   0.00000  -0.00847  -0.00825  27.73293
   Y374      42.76450  -0.00804   0.00000  -0.00716  -0.00720  42.75731
   Z374      50.79584  -0.01788   0.00000  -0.01898  -0.01883  50.77700
   X375      27.93015   0.00209   0.00000   0.00170   0.00191  27.93206
   Y375      41.04485  -0.00370   0.00000  -0.00370  -0.00373  41.04112
   Z375      51.34386   0.00091   0.00000  -0.00038  -0.00023  51.34362
   X376      29.12068   0.00625   0.00000  -0.00684  -0.00661  29.11407
   Y376      43.63378   0.00979   0.00000   0.00760   0.00756  43.64134
   Z376      51.55173   0.01421   0.00000   0.01423   0.01436  51.56608
   X377      48.26361   0.00842   0.00000   0.00089   0.00110  48.26470
   Y377      51.98637   0.01034   0.00000   0.00945   0.00927  51.99563
   Z377      43.38811  -0.00554   0.00000  -0.00169  -0.00177  43.38634
   X378      48.52817  -0.00180   0.00000  -0.00286  -0.00264  48.52552
   Y378      51.26827  -0.00970   0.00000  -0.01187  -0.01206  51.25621
   Z378      45.03217   0.00591   0.00000   0.00114   0.00106  45.03323
   X379      46.54395  -0.01489   0.00000  -0.01277  -0.01257  46.53138
   Y379      51.57063  -0.00357   0.00000  -0.00205  -0.00222  51.56840
   Z379      42.97237   0.00186   0.00000   0.00457   0.00451  42.97688
   X380      31.16158  -0.00632   0.00000  -0.00057  -0.00030  31.16129
   Y380      45.16445   0.00014   0.00000  -0.00366  -0.00372  45.16073
   Z380      53.83830   0.01232   0.00000   0.00327   0.00338  53.84168
   X381      32.08755   0.01937   0.00000   0.02195   0.02220  32.10975
   Y381      44.82430   0.00064   0.00000   0.00348   0.00342  44.82772
   Z381      52.32652  -0.01284   0.00000  -0.00728  -0.00718  52.31933
   X382      32.27652   0.00020   0.00000   0.00042   0.00071  32.27723
   Y382      46.22270  -0.00212   0.00000  -0.00195  -0.00201  46.22069
   Z382      54.82096  -0.00458   0.00000  -0.00500  -0.00491  54.81605
   X383      53.93278  -0.00368   0.00000   0.00004  -0.00001  53.93278
   Y383      35.37567   0.00224   0.00000  -0.00470  -0.00493  35.37075
   Z383      32.25763   0.01411   0.00000   0.01514   0.01500  32.27262
   X384      54.42411   0.00333   0.00000   0.00138   0.00131  54.42543
   Y384      34.14735  -0.00557   0.00000  -0.00002  -0.00026  34.14709
   Z384      31.02930  -0.01155   0.00000  -0.01023  -0.01038  31.01893
   X385      55.50126   0.00369   0.00000   0.00442   0.00439  55.50564
   Y385      36.11267   0.00251   0.00000   0.00401   0.00376  36.11643
   Z385      32.80565  -0.00140   0.00000  -0.00249  -0.00265  32.80299
         Item               Value     Threshold  Converged?
 Maximum Force            0.036346     0.000450     NO 
 RMS     Force            0.010346     0.000300     NO 
 Maximum Displacement     0.032583     0.001800     NO 
 RMS     Displacement     0.008827     0.001200     NO 
 Predicted change in Energy=-7.363410D-02
 GradGradGradGradGradGradGradGradGradGradGradGradGradGradGradGradGradGrad

 Leave Link  103 at Wed May  9 00:15:42 2018, MaxMem= 14763950080 cpu:      2737.0
 (Enter /cm/shared/gaussian/g09.e01/intel64-sandybridge/g09/l9999.exe)
 1\1\GINC-POPLE01\Force\RPBE1PBE\CC-pVDZ\Br1H256O128(1-)\M.PELUSO\09-Ma
 y-2018\0\\#p PBE1PBE/cc-pvDZ force Counterpoise=2 noSymm\\forces on ch
 loride comput - NWATER: 128\\-1,1\Br,20.,20.,20.\O,22.93,19.14,21.06\H
 ,22.03,19.47,21.07\H,23.47,19.91,20.93\O,20.39,21.79,17.2\H,21.,21.41,
 16.57\H,20.4,21.19,17.94\O,22.35,22.04,21.32\H,21.74,21.42,20.92\H,22.
 32,21.83,22.25\O,17.,19.3,18.86\H,16.78,20.14,19.28\H,17.94,19.21,18.9
 8\O,19.55,18.49,22.85\H,19.25,18.99,22.09\H,20.49,18.36,22.69\O,21.04,
 16.65,18.68\H,20.39,15.98,18.88\H,20.77,17.41,19.19\O,16.43,21.58,20.0
 9\H,17.24,21.39,20.57\H,16.7,22.12,19.35\O,17.63,22.27,17.63\H,17.54,2
 3.03,17.06\H,18.57,22.19,17.78\O,22.4,17.26,22.82\H,22.81,16.56,22.31\
 H,22.47,18.03,22.27\O,18.53,15.74,22.12\H,18.65,15.63,21.18\H,18.64,16
 .68,22.27\O,23.77,17.09,17.81\H,23.83,16.21,17.46\H,22.88,17.17,18.14\
 O,17.71,18.91,15.62\H,16.85,18.67,15.28\H,17.53,19.54,16.32\O,22.68,21
 .14,16.12\H,23.12,21.03,15.28\H,23.24,20.67,16.74\O,20.91,24.28,16.68\
 H,20.54,23.43,16.91\H,21.73,24.08,16.23\O,23.41,15.76,20.41\H,23.31,14
 .83,20.19\H,22.72,16.2,19.91\O,19.08,19.46,25.48\H,19.09,18.71,26.08\H
 ,19.14,19.07,24.61\O,20.96,16.37,15.89\H,21.08,16.41,16.84\H,20.12,15.
 93,15.77\O,17.97,25.09,19.51\H,17.05,24.95,19.29\H,18.1,24.63,20.34\O,
 15.18,21.52,16.85\H,15.45,22.1,16.14\H,15.94,21.46,17.42\O,25.12,19.53
 ,17.79\H,25.61,19.77,18.58\H,24.54,18.82,18.07\O,24.97,22.72,18.41\H,2
 4.03,22.6,18.31\H,25.12,23.63,18.15\O,14.11,18.57,18.79\H,15.03,18.75,
 18.94\H,14.1,17.7,18.39\O,22.93,21.49,24.14\H,22.72,21.13,25.\H,23.71,
 21.,23.86\O,19.53,19.69,13.91\H,19.04,19.15,13.29\H,19.09,19.54,14.75\
 O,16.25,16.28,17.\H,16.54,15.73,16.26\H,16.67,17.12,16.85\O,22.48,25.6
 5,20.24\H,22.53,26.17,19.43\H,22.7,24.76,19.97\O,16.65,16.74,24.57\H,1
 6.94,17.48,24.04\H,17.32,16.63,25.24\O,19.57,14.52,18.64\H,19.78,14.06
 ,17.82\H,20.34,14.38,19.19\O,13.69,22.26,20.55\H,14.57,21.99,20.29\H,1
 3.82,22.74,21.37\O,25.14,23.6,22.37\H,24.3,23.15,22.38\H,25.53,23.36,2
 1.53\O,18.83,23.17,14.88\H,19.56,23.79,14.9\H,19.23,22.33,14.7\O,19.97
 ,24.32,24.2\H,20.13,24.83,23.41\H,20.82,23.93,24.42\O,17.85,22.79,25.7
 1\H,17.65,22.06,25.12\H,18.66,23.16,25.36\O,21.68,17.18,25.7\H,22.21,1
 6.52,26.14\H,22.22,17.47,24.97\O,20.58,21.41,26.36\H,19.97,20.75,26.03
 \H,21.45,21.07,26.15\O,25.11,20.22,23.58\H,25.1,19.32,23.26\H,25.77,20
 .66,23.05\O,22.,18.24,13.93\H,21.47,19.04,13.96\H,21.64,17.68,14.61\O,
 22.09,14.4,23.82\H,21.47,13.67,23.8\H,21.6,15.15,23.5\O,22.76,23.98,24
 .79\H,22.87,24.1,25.73\H,23.08,23.09,24.63\O,16.02,14.77,22.4\H,16.92,
 15.04,22.58\H,15.53,15.6,22.38\O,19.05,26.3,17.27\H,19.85,25.8,17.1\H,
 18.72,25.96,18.1\O,14.44,16.73,21.48\H,14.65,16.41,20.6\H,14.22,17.65,
 21.36\O,15.55,21.69,24.31\H,14.67,21.5,23.99\H,15.41,22.27,25.05\O,26.
 45,19.8,20.2\H,26.97,19.03,19.98\H,27.08,20.52,20.24\O,16.26,19.57,25.
 87\H,17.21,19.55,25.84\H,16.,20.22,25.23\O,19.98,26.12,22.3\H,19.4,26.
 84,22.55\H,20.28,26.33,21.42\O,23.05,26.,22.98\H,23.39,25.31,23.55\H,2
 2.47,25.54,22.37\O,15.16,14.95,19.13\H,15.69,15.31,18.41\H,15.51,14.07
 ,19.27\O,13.27,19.04,21.36\H,12.34,19.22,21.46\H,13.43,19.07,20.42\O,1
 6.06,23.47,15.38\H,15.77,24.37,15.54\H,17.,23.54,15.22\O,25.85,17.65,2
 2.38\H,26.52,17.1,22.79\H,26.1,17.69,21.46\O,21.99,13.52,19.92\H,21.81
 ,12.97,20.68\H,22.56,12.99,19.36\O,20.6,22.03,13.\H,20.23,21.2,13.28\H
 ,21.23,21.8,12.31\O,19.49,14.19,24.72\H,18.85,14.53,24.1\H,18.97,13.7,
 25.36\O,27.38,22.37,19.89\H,26.53,22.28,19.46\H,27.7,23.23,19.63\O,23.
 06,19.9,26.37\H,22.67,19.02,26.34\H,24.,19.74,26.41\O,15.18,24.98,20.5
 7\H,15.32,25.93,20.59\H,14.7,24.84,19.75\O,15.78,25.35,23.33\H,14.82,2
 5.41,23.4\H,15.94,25.12,22.42\O,22.22,13.69,16.21\H,21.8,14.52,15.99\H
 ,23.08,13.95,16.55\O,13.14,21.33,23.28\H,13.44,20.83,22.52\H,12.36,20.
 87,23.58\O,23.65,25.57,17.54\H,24.56,25.76,17.31\H,23.13,26.05,16.89\O
 ,26.46,21.33,15.81\H,27.31,21.71,16.04\H,26.2,20.86,16.61\O,18.38,15.6
 2,14.46\H,18.17,16.21,13.73\H,17.55,15.18,14.66\O,14.17,24.25,18.29\H,
 13.5,23.57,18.29\H,14.6,24.17,17.44\O,25.06,17.03,25.28\H,25.49,16.28,
 25.69\H,25.04,16.81,24.35\O,23.33,24.41,14.55\H,24.05,25.,14.78\H,23.7
 ,23.53,14.62\O,26.29,18.32,15.26\H,25.72,19.09,15.29\H,26.56,18.18,16.
 17\O,24.37,16.46,13.92\H,25.05,16.85,14.47\H,23.57,16.95,14.13\O,25.55
 ,14.11,21.61\H,24.86,14.17,22.27\H,25.39,14.85,21.03\O,12.72,20.64,15.
 83\H,12.57,19.79,16.24\H,13.64,20.85,16.03\O,17.05,13.43,16.68\H,16.84
 ,12.56,17.02\H,18.01,13.47,16.71\O,17.85,23.03,12.37\H,17.81,22.55,13.
 2\H,18.58,23.64,12.48\O,17.63,26.14,25.57\H,17.65,25.3,25.1\H,18.55,26
 .3,25.8\O,25.39,22.39,25.95\H,25.17,21.56,25.52\H,25.07,22.3,26.84\O,1
 3.34,16.76,24.34\H,13.63,17.16,25.16\H,14.14,16.7,23.81\O,18.11,20.99,
 28.42\H,18.21,20.8,27.49\H,17.18,20.83,28.6\O,19.25,17.46,27.3\H,19.99
 ,16.87,27.14\H,19.19,17.51,28.25\O,24.65,21.18,13.71\H,25.26,21.39,14.
 42\H,25.21,20.98,12.96\O,11.54,20.97,19.48\H,11.,20.83,20.26\H,12.32,2
 1.41,19.81\O,14.69,17.54,14.77\H,15.1,16.67,14.68\H,13.8,17.36,15.06\O
 ,20.31,28.54,19.69\H,19.35,28.52,19.76\H,20.52,27.84,19.07\O,11.58,18.
 77,17.78\H,12.48,18.51,18.\H,11.39,19.51,18.36\O,20.67,25.01,13.65\H,2
 1.53,25.12,14.05\H,20.75,24.23,13.11\O,16.56,12.09,22.51\H,16.57,13.04
 ,22.39\H,17.44,11.81,22.26\O,25.99,24.71,24.58\H,25.68,23.98,25.1\H,25
 .69,24.52,23.69\O,21.91,14.55,26.75\H,21.42,13.83,27.13\H,21.71,14.51,
 25.81\O,19.97,22.88,28.58\H,20.22,22.92,27.66\H,19.17,22.34,28.59\O,22
 .71,28.3,21.21\H,21.86,28.34,20.77\H,22.61,27.6,21.86\O,13.63,13.62,21
 .42\H,14.49,13.97,21.65\H,13.32,14.18,20.71\O,17.51,27.83,15.88\H,17.9
 8,28.65,15.75\H,18.13,27.27,16.36\O,25.04,14.34,16.43\H,25.19,14.23,15
 .5\H,25.91,14.53,16.8\O,11.84,23.05,17.46\H,12.24,22.22,17.73\H,11.33,
 23.33,18.22\O,15.37,25.85,16.16\H,16.03,26.53,16.1\H,14.61,26.29,16.54
 \O,13.54,19.19,26.3\H,13.26,19.33,27.2\H,14.47,19.43,26.3\O,18.7,17.96
 ,11.92\H,19.24,18.27,11.18\H,18.82,17.01,11.92\O,19.39,12.71,15.66\H,1
 8.86,12.45,14.91\H,20.29,12.66,15.34\O,11.64,16.29,21.49\H,11.08,16.09
 ,22.25\H,12.24,16.96,21.8\O,26.33,25.74,18.4\H,26.3,25.71,19.35\H,27.2
 ,26.09,18.19\O,28.44,22.38,22.42\H,28.17,23.19,22.85\H,28.04,22.41,21.
 56\O,16.,12.23,19.6\H,15.62,12.25,20.48\H,16.93,12.03,19.74\O,21.35,11
 .94,22.56\H,21.07,11.18,22.04\H,21.9,11.57,23.26\O,21.71,26.58,26.46\H
 ,22.03,25.99,25.78\H,22.18,27.4,26.3\O,28.2,17.48,19.76\H,28.48,17.6,1
 8.85\H,28.72,18.12,20.26\O,22.86,16.7,11.81\H,23.36,16.43,12.58\H,22.2
 9,17.4,12.14\O,18.6,11.28,20.1\H,19.45,11.41,19.68\H,18.44,10.34,20.01
 \O,16.35,27.91,23.45\H,16.2,26.96,23.42\H,17.28,28.01,23.26\O,24.58,12
 .87,24.2\H,24.42,12.23,24.89\H,23.77,13.38,24.16\O,23.04,22.49,11.65\H
 ,23.58,22.27,12.41\H,22.91,21.66,11.19\O,16.22,14.29,25.96\H,15.61,13.
 57,25.8\H,15.71,15.08,25.77\O,28.84,19.22,21.98\H,28.41,20.,22.32\H,29
 .77,19.41,22.06\O,14.13,13.,16.63\H,14.83,13.59,16.92\H,13.69,12.73,17
 .44\O,21.66,19.5,29.15\H,22.07,19.69,29.99\H,21.87,20.26,28.6\O,18.78,
 26.93,13.65\H,19.41,26.23,13.77\H,18.43,27.11,14.53\O,16.15,17.78,28.6
 6\H,17.01,17.84,29.08\H,16.35,17.73,27.72\O,17.59,28.91,19.78\H,17.03,
 29.17,19.04\H,17.04,28.32,20.3\O,15.71,14.72,14.36\H,15.96,13.95,14.87
 \H,15.93,14.49,13.46\O,27.98,19.41,24.98\H,27.08,19.39,25.31\H,28.21,1
 8.5,24.83\O,22.65,27.66,16.01\H,21.81,28.1,15.91\H,22.68,27.03,15.29\O
 ,15.3,27.58,20.63\H,14.42,27.63,20.28\H,15.24,28.,21.49\O,22.84,23.89,
 27.55\H,22.44,23.51,28.33\H,22.99,24.81,27.78\O,27.26,14.72,19.36\H,27
 .75,15.53,19.52\H,27.05,14.39,20.23\O,25.85,19.65,26.78\H,25.52,20.3,2
 7.4\H,25.79,18.82,27.25\O,13.34,23.02,13.55\H,13.77,22.49,12.88\H,13.4
 5,22.51,14.36\O,26.86,25.97,21.32\H,27.62,26.44,21.65\H,26.11,26.39,21
 .73\O,14.68,22.63,26.88\H,14.78,21.72,27.17\H,15.41,23.09,27.28\O,25.5
 4,27.51,22.96\H,25.68,27.13,23.83\H,24.63,27.29,22.74\O,16.49,23.9,28.
 49\H,16.98,23.72,27.69\H,17.08,24.46,29.01\O,28.54,18.72,17.07\H,28.8,
 18.07,16.42\H,29.37,19.11,17.36\\Version=ES64L-G09RevE.01\HF=-9773.333
 6879\RMSD=9.503e-10\RMSF=1.035e-02\Dipole=15.489418,-9.7147591,-0.0542
 115\Quadrupole=1062.3887497,-842.1714274,-220.2173223,-1283.3776885,-9
 08.8619057,-1850.440815\PG=C01 [X(Br1H256O128)]\\@


 IN THE UNIVERSE THE DIFFICULT THINGS ARE DONE AS IF THEY WERE EASY.

                                                          -- LAO-TSU
 Job cpu time:       5 days 23 hours 37 minutes 14.6 seconds.
 File lengths (MBytes):  RWF=   7285 Int=      0 D2E=      0 Chk=   2411 Scr=      1
 Normal termination of Gaussian 09 at Wed May  9 00:16:09 2018.
