 Entering Gaussian System, Link 0=/cm/shared/gaussian/g09.e01/intel64-sandybridge/g09/g09
 Initial command:
 /cm/shared/gaussian/g09.e01/intel64-sandybridge/g09/l1.exe "/local/scratch/m.peluso/128_wat/370/Gau-4755.inp" -scrdir="/local/scratch/m.peluso/128_wat/370/"
 Entering Link 1 = /cm/shared/gaussian/g09.e01/intel64-sandybridge/g09/l1.exe PID=      4756.
  
 Copyright (c) 1988,1990,1992,1993,1995,1998,2003,2009,2015,
            Gaussian, Inc.  All Rights Reserved.
  
 This is part of the Gaussian(R) 09 program.  It is based on
 the Gaussian(R) 03 system (copyright 2003, Gaussian, Inc.),
 the Gaussian(R) 98 system (copyright 1998, Gaussian, Inc.),
 the Gaussian(R) 94 system (copyright 1995, Gaussian, Inc.),
 the Gaussian 92(TM) system (copyright 1992, Gaussian, Inc.),
 the Gaussian 90(TM) system (copyright 1990, Gaussian, Inc.),
 the Gaussian 88(TM) system (copyright 1988, Gaussian, Inc.),
 the Gaussian 86(TM) system (copyright 1986, Carnegie Mellon
 University), and the Gaussian 82(TM) system (copyright 1983,
 Carnegie Mellon University). Gaussian is a federally registered
 trademark of Gaussian, Inc.
  
 This software contains proprietary and confidential information,
 including trade secrets, belonging to Gaussian, Inc.
  
 This software is provided under written license and may be
 used, copied, transmitted, or stored only in accord with that
 written license.
  
 The following legend is applicable only to US Government
 contracts under FAR:
  
                    RESTRICTED RIGHTS LEGEND
  
 Use, reproduction and disclosure by the US Government is
 subject to restrictions as set forth in subparagraphs (a)
 and (c) of the Commercial Computer Software - Restricted
 Rights clause in FAR 52.227-19.
  
 Gaussian, Inc.
 340 Quinnipiac St., Bldg. 40, Wallingford CT 06492
  
  
 ---------------------------------------------------------------
 Warning -- This program may not be used in any manner that
 competes with the business of Gaussian, Inc. or will provide
 assistance to any competitor of Gaussian, Inc.  The licensee
 of this program is prohibited from giving any competitor of
 Gaussian, Inc. access to this program.  By using this program,
 the user acknowledges that Gaussian, Inc. is engaged in the
 business of creating and licensing software in the field of
 computational chemistry and represents and warrants to the
 licensee that it is not a competitor of Gaussian, Inc. and that
 it will not use this program in any manner prohibited above.
 ---------------------------------------------------------------
  

 Cite this work as:
 Gaussian 09, Revision E.01,
 M. J. Frisch, G. W. Trucks, H. B. Schlegel, G. E. Scuseria, 
 M. A. Robb, J. R. Cheeseman, G. Scalmani, V. Barone, B. Mennucci, 
 G. A. Petersson, H. Nakatsuji, M. Caricato, X. Li, H. P. Hratchian, 
 A. F. Izmaylov, J. Bloino, G. Zheng, J. L. Sonnenberg, M. Hada, 
 M. Ehara, K. Toyota, R. Fukuda, J. Hasegawa, M. Ishida, T. Nakajima, 
 Y. Honda, O. Kitao, H. Nakai, T. Vreven, J. A. Montgomery, Jr., 
 J. E. Peralta, F. Ogliaro, M. Bearpark, J. J. Heyd, E. Brothers, 
 K. N. Kudin, V. N. Staroverov, T. Keith, R. Kobayashi, J. Normand, 
 K. Raghavachari, A. Rendell, J. C. Burant, S. S. Iyengar, J. Tomasi, 
 M. Cossi, N. Rega, J. M. Millam, M. Klene, J. E. Knox, J. B. Cross, 
 V. Bakken, C. Adamo, J. Jaramillo, R. Gomperts, R. E. Stratmann, 
 O. Yazyev, A. J. Austin, R. Cammi, C. Pomelli, J. W. Ochterski, 
 R. L. Martin, K. Morokuma, V. G. Zakrzewski, G. A. Voth, 
 P. Salvador, J. J. Dannenberg, S. Dapprich, A. D. Daniels, 
 O. Farkas, J. B. Foresman, J. V. Ortiz, J. Cioslowski, 
 and D. J. Fox, Gaussian, Inc., Wallingford CT, 2013.
 
 ******************************************
 Gaussian 09:  ES64L-G09RevE.01 30-Nov-2015
                 9-May-2018 
 ******************************************
 %Mem=110GB
 %NProcShared=64
 Will use up to   64 processors via shared memory.
 %chk=snap72.chk
 ----------------------------------------------
 #p PBE1PBE/cc-pvDZ force Counterpoise=2 noSymm
 ----------------------------------------------
 1/10=7,30=1,38=1,62=2/1,3;
 2/12=2,15=1,17=6,18=5,40=1/2;
 1/10=7,30=1,38=1,53=2,62=2,63=101/22;
 3/5=16,11=2,16=1,25=1,30=1,71=1,74=-13/1,2,3;
 4//1;
 5/5=2,38=5/2;
 6/7=2,8=2,9=2,10=2,28=1/1;
 7/7=1,29=1,30=1,33=-1/1,2,3,16;
 1/10=7,30=1,53=2,62=2,63=101/22;
 3/5=7,6=11,11=2,16=1,25=1,30=1,71=1,74=-13,82=7/1,2,3;
 4//1;
 5/5=2,38=5/2;
 6/7=2,8=2,9=2,10=2,28=1/1;
 7/7=1,29=1,30=1,33=-1/1,2,3,16;
 1/10=7,30=1,53=2,62=2,63=101/22(-5);
 7/9=1,29=1,44=-1/16;
 1/10=7,30=1,62=2/3;
 99//99;
 Leave Link    1 at Wed May  9 11:01:47 2018, MaxMem= 14763950080 cpu:         6.0
 (Enter /cm/shared/gaussian/g09.e01/intel64-sandybridge/g09/l101.exe)
 ---------------------------------------
 forces on chloride comput - NWATER: 128
 ---------------------------------------
 Symbolic Z-matrix:
 Charge = -1 Multiplicity = 1 in supermolecule
 Charge = -1 Multiplicity = 1 in fragment      1.
 Charge =  0 Multiplicity = 1 in fragment      2.
 Br(Fragment=1)        20.       20.       20. 
 O(Fragment=2)         22.6      20.85     18.47 
 H(Fragment=2)         21.84     20.49     18.92 
 H(Fragment=2)         22.58     21.79     18.66 
 O(Fragment=2)         19.65     17.99     22.42 
 H(Fragment=2)         19.57     18.57     21.66 
 H(Fragment=2)         18.84     18.15     22.92 
 O(Fragment=2)         18.99     17.18     18.37 
 H(Fragment=2)         18.36     17.49     17.73 
 H(Fragment=2)         19.51     17.95     18.59 
 O(Fragment=2)         17.11     21.07     17.84 
 H(Fragment=2)         16.79     21.53     18.62 
 H(Fragment=2)         17.93     20.66     18.12 
 O(Fragment=2)         17.05     20.95     22.56 
 H(Fragment=2)         17.44     21.07     21.69 
 H(Fragment=2)         17.66     20.37     23.02 
 O(Fragment=2)         21.09     22.44     22.8 
 H(Fragment=2)         21.14     21.5      22.65 
 H(Fragment=2)         21.94     22.66     23.18 
 O(Fragment=2)         19.92     19.49     15.81 
 H(Fragment=2)         19.89     19.72     16.75 
 H(Fragment=2)         20.85     19.4      15.62 
 O(Fragment=2)         20.47     23.6      20.56 
 H(Fragment=2)         19.64     23.45     20.11 
 H(Fragment=2)         20.46     22.97     21.29 
 O(Fragment=2)         22.68     18.06     21.98 
 H(Fragment=2)         21.76     18.14     22.26 
 H(Fragment=2)         22.63     17.97     21.03 
 O(Fragment=2)         15.79     18.91     19.86 
 H(Fragment=2)         15.57     18.64     20.75 
 H(Fragment=2)         16.73     18.74     19.79 
 O(Fragment=2)         22.73     23.71     18.89 
 H(Fragment=2)         21.89     23.44     19.24 
 H(Fragment=2)         22.56     24.58     18.52 
 O(Fragment=2)         22.71     20.31     23.37 
 H(Fragment=2)         22.86     19.58     22.77 
 H(Fragment=2)         23.4      20.94     23.16 
 O(Fragment=2)         17.93     23.56     19.49 
 H(Fragment=2)         17.97     23.95     20.36 
 H(Fragment=2)         16.99     23.55     19.28 
 O(Fragment=2)         21.43     16.54     16.7 
 H(Fragment=2)         20.55     16.53     17.07 
 H(Fragment=2)         22.01     16.56     17.45 
 O(Fragment=2)         18.91     24.44     16.99 
 H(Fragment=2)         18.71     23.97     17.8 
 H(Fragment=2)         18.79     25.36     17.2 
 O(Fragment=2)         25.23     19.96     18.23 
 H(Fragment=2)         24.93     19.3      17.61 
 H(Fragment=2)         24.45     20.47     18.44 
 O(Fragment=2)         18.87     14.53     19.08 
 H(Fragment=2)         19.21     15.42     18.94 
 H(Fragment=2)         19.63     14.03     19.38 
 O(Fragment=2)         22.57     19.66     15.64 
 H(Fragment=2)         23.49     19.39     15.75 
 H(Fragment=2)         22.54     20.56     15.98 
 O(Fragment=2)         15.43     19.19     16.74 
 H(Fragment=2)         15.88     19.53     17.52 
 H(Fragment=2)         15.76     19.74     16.02 
 O(Fragment=2)         24.71     22.72     20.65 
 H(Fragment=2)         24.       22.88     20.03 
 H(Fragment=2)         24.96     23.59     20.97 
 O(Fragment=2)         17.75     22.07     15.23 
 H(Fragment=2)         17.44     22.14     16.13 
 H(Fragment=2)         17.32     21.28     14.89 
 O(Fragment=2)         17.88     15.62     22.93 
 H(Fragment=2)         18.42     16.33     23.29 
 H(Fragment=2)         17.92     15.74     21.98 
 O(Fragment=2)         21.03     25.09     23.23 
 H(Fragment=2)         21.95     25.09     23.49 
 H(Fragment=2)         20.92     24.27     22.75 
 O(Fragment=2)         23.62     16.8      18.13 
 H(Fragment=2)         23.68     16.17     18.84 
 H(Fragment=2)         24.38     16.61     17.58 
 O(Fragment=2)         21.36     19.51     25.75 
 H(Fragment=2)         21.91     18.75     25.92 
 H(Fragment=2)         21.68     19.85     24.91 
 O(Fragment=2)         17.25     18.04     24.09 
 H(Fragment=2)         17.08     18.52     24.91 
 H(Fragment=2)         16.62     17.32     24.1 
 O(Fragment=2)         18.64     23.91     24.45 
 H(Fragment=2)         18.93     23.83     23.54 
 H(Fragment=2)         18.78     24.82     24.67 
 O(Fragment=2)         24.54     22.92     16.9 
 H(Fragment=2)         23.93     22.88     17.64 
 H(Fragment=2)         24.05     22.54     16.17 
 O(Fragment=2)         21.26     14.81     22.96 
 H(Fragment=2)         20.88     14.27     22.27 
 H(Fragment=2)         20.67     15.56     23.04 
 O(Fragment=2)         17.57     16.94     16.13 
 H(Fragment=2)         17.81     17.69     15.58 
 H(Fragment=2)         17.84     16.18     15.63 
 O(Fragment=2)         20.49     23.13     15.17 
 H(Fragment=2)         20.03     22.67     14.46 
 H(Fragment=2)         19.79     23.51     15.7 
 O(Fragment=2)         13.59     20.64     20.11 
 H(Fragment=2)         14.32     20.11     19.78 
 H(Fragment=2)         13.55     20.44     21.04 
 O(Fragment=2)         15.26     23.13     19.16 
 H(Fragment=2)         14.74     22.78     19.88 
 H(Fragment=2)         14.77     22.91     18.37 
 O(Fragment=2)         21.28     26.55     20.03 
 H(Fragment=2)         21.05     25.67     20.34 
 H(Fragment=2)         22.15     26.72     20.4 
 O(Fragment=2)         21.66     14.19     19.72 
 H(Fragment=2)         22.16     14.15     18.91 
 H(Fragment=2)         22.22     14.67     20.33 
 O(Fragment=2)         16.42     15.32     18.06 
 H(Fragment=2)         16.37     16.16     17.59 
 H(Fragment=2)         17.36     15.14     18.14 
 O(Fragment=2)         18.19     25.29     21.66 
 H(Fragment=2)         18.95     25.82     21.89 
 H(Fragment=2)         17.54     25.5      22.33 
 O(Fragment=2)         15.49     23.4      23.55 
 H(Fragment=2)         16.39     23.2      23.31 
 H(Fragment=2)         15.54     23.7      24.46 
 O(Fragment=2)         18.77     19.68     13.34 
 H(Fragment=2)         18.49     18.77     13.37 
 H(Fragment=2)         18.8      19.95     14.26 
 O(Fragment=2)         14.12     21.21     22.69 
 H(Fragment=2)         14.55     22.02     22.96 
 H(Fragment=2)         14.82     20.55     22.71 
 O(Fragment=2)         23.77     15.4      20.8 
 H(Fragment=2)         23.57     15.59     21.72 
 H(Fragment=2)         24.7      15.62     20.71 
 O(Fragment=2)         23.01     22.35     14.98 
 H(Fragment=2)         22.9      21.86     14.17 
 H(Fragment=2)         22.15     22.74     15.14 
 O(Fragment=2)         20.87     22.42     26.1 
 H(Fragment=2)         20.64     22.82     25.27 
 H(Fragment=2)         21.43     21.67     25.86 
 O(Fragment=2)         24.99     21.64     23.17 
 H(Fragment=2)         25.8      21.41     23.63 
 H(Fragment=2)         25.27     21.8      22.27 
 O(Fragment=2)         26.91     19.97     20.55 
 H(Fragment=2)         26.99     19.19     21.1 
 H(Fragment=2)         26.12     19.82     20.04 
 O(Fragment=2)         21.77     25.39     16.54 
 H(Fragment=2)         22.02     24.54     16.17 
 H(Fragment=2)         20.83     25.3      16.74 
 O(Fragment=2)         26.13     18.6      22.81 
 H(Fragment=2)         26.8      19.16     23.2 
 H(Fragment=2)         25.33     18.8      23.31 
 O(Fragment=2)         23.08     17.29     14.31 
 H(Fragment=2)         22.81     18.2      14.4 
 H(Fragment=2)         22.64     16.84     15.04 
 O(Fragment=2)         14.17     17.93     21.95 
 H(Fragment=2)         14.55     17.42     22.67 
 H(Fragment=2)         13.41     18.36     22.33 
 O(Fragment=2)         13.63     16.47     19.27 
 H(Fragment=2)         14.55     16.54     19.01 
 H(Fragment=2)         13.6      16.87     20.14 
 O(Fragment=2)         23.44     23.56     24.48 
 H(Fragment=2)         24.08     22.91     24.2 
 H(Fragment=2)         23.36     23.43     25.42 
 O(Fragment=2)         17.23     22.13     26.43 
 H(Fragment=2)         17.3      21.41     25.8 
 H(Fragment=2)         17.9      22.76     26.15 
 O(Fragment=2)         19.28     15.04     14.92 
 H(Fragment=2)         20.08     15.41     15.3 
 H(Fragment=2)         18.92     14.5      15.62 
 O(Fragment=2)         15.28     16.22     23.69 
 H(Fragment=2)         14.53     15.66     23.48 
 H(Fragment=2)         16.       15.86     23.17 
 O(Fragment=2)         18.94     26.96     18.36 
 H(Fragment=2)         19.65     26.77     18.97 
 H(Fragment=2)         19.15     27.83     18.01 
 O(Fragment=2)         17.26     12.87     20.49 
 H(Fragment=2)         18.02     12.78     21.06 
 H(Fragment=2)         17.49     13.59     19.9 
 O(Fragment=2)         23.       17.09     25.56 
 H(Fragment=2)         23.18     16.17     25.34 
 H(Fragment=2)         23.77     17.56     25.24 
 O(Fragment=2)         17.       25.64     15.44 
 H(Fragment=2)         17.61     25.05     15.88 
 H(Fragment=2)         16.24     25.09     15.25 
 O(Fragment=2)         14.41     16.84     15.5 
 H(Fragment=2)         14.28     17.21     14.63 
 H(Fragment=2)         14.93     17.5      15.96 
 O(Fragment=2)         14.58     25.5      20.72 
 H(Fragment=2)         15.11     25.05     20.06 
 H(Fragment=2)         14.03     24.81     21.09 
 O(Fragment=2)         26.75     16.52     20.83 
 H(Fragment=2)         26.35     17.18     21.38 
 H(Fragment=2)         27.32     16.02     21.42 
 O(Fragment=2)         23.42     14.6      24.49 
 H(Fragment=2)         23.34     13.71     24.83 
 H(Fragment=2)         22.64     14.71     23.94 
 O(Fragment=2)         25.27     19.2      15.3 
 H(Fragment=2)         25.63     20.03     14.99 
 H(Fragment=2)         25.96     18.56     15.12 
 O(Fragment=2)         18.34     13.19     16.62 
 H(Fragment=2)         17.68     12.5      16.63 
 H(Fragment=2)         18.34     13.54     17.51 
 O(Fragment=2)         27.4      22.67     18.83 
 H(Fragment=2)         26.74     22.41     19.47 
 H(Fragment=2)         27.97     21.9      18.75 
 O(Fragment=2)         19.81     12.62     21.47 
 H(Fragment=2)         20.08     11.75     21.75 
 H(Fragment=2)         20.43     12.86     20.78 
 O(Fragment=2)         19.23     19.56     27.93 
 H(Fragment=2)         19.91     19.6      27.25 
 H(Fragment=2)         19.42     20.31     28.49 
 O(Fragment=2)         16.01     20.21     13.9 
 H(Fragment=2)         16.28     19.86     13.05 
 H(Fragment=2)         15.49     20.98     13.67 
 O(Fragment=2)         19.85     21.92     12.63 
 H(Fragment=2)         20.6      21.63     12.1 
 H(Fragment=2)         19.35     21.12     12.79 
 O(Fragment=2)         17.46     13.3      24.28 
 H(Fragment=2)         16.82     13.7      24.87 
 H(Fragment=2)         17.61     13.97     23.61 
 O(Fragment=2)         26.26     21.79     15.17 
 H(Fragment=2)         25.68     22.26     15.77 
 H(Fragment=2)         26.92     21.39     15.74 
 O(Fragment=2)         17.55     23.72     12.93 
 H(Fragment=2)         18.       23.18     12.28 
 H(Fragment=2)         17.6      23.22     13.74 
 O(Fragment=2)         24.77     19.52     25.73 
 H(Fragment=2)         25.54     18.96     25.87 
 H(Fragment=2)         24.3      19.49     26.56 
 O(Fragment=2)         12.15     19.07     17.86 
 H(Fragment=2)         12.29     18.13     18.04 
 H(Fragment=2)         12.64     19.51     18.55 
 O(Fragment=2)         16.82     19.       26.75 
 H(Fragment=2)         17.65     19.15     27.21 
 H(Fragment=2)         16.22     19.66     27.11 
 O(Fragment=2)         18.69     15.41     26.95 
 H(Fragment=2)         18.39     15.96     26.22 
 H(Fragment=2)         19.19     14.71     26.53 
 O(Fragment=2)         24.9      25.23     15.36 
 H(Fragment=2)         24.5      24.63     15.99 
 H(Fragment=2)         25.81     25.32     15.65 
 O(Fragment=2)         25.51     25.16     21.76 
 H(Fragment=2)         24.75     25.72     21.67 
 H(Fragment=2)         26.19     25.59     21.24 
 O(Fragment=2)         13.75     23.12     16.37 
 H(Fragment=2)         13.54     22.21     16.58 
 H(Fragment=2)         13.56     23.21     15.44 
 O(Fragment=2)         25.67     15.       23.26 
 H(Fragment=2)         24.87     14.67     23.67 
 H(Fragment=2)         25.62     15.95     23.35 
 O(Fragment=2)         19.96     25.74     13.64 
 H(Fragment=2)         19.03     25.58     13.44 
 H(Fragment=2)         20.27     24.91     14.01 
 O(Fragment=2)         14.61     13.49     19.05 
 H(Fragment=2)         15.13     12.92     19.61 
 H(Fragment=2)         15.26     13.95     18.51 
 O(Fragment=2)         25.72     16.89     14.36 
 H(Fragment=2)         24.82     17.19     14.45 
 H(Fragment=2)         25.82     16.67     13.43 
 O(Fragment=2)         24.61     22.32     26.91 
 H(Fragment=2)         25.47     22.71     26.84 
 H(Fragment=2)         24.62     21.59     26.28 
 O(Fragment=2)         20.12     27.01     25.29 
 H(Fragment=2)         20.22     27.87     24.88 
 H(Fragment=2)         20.57     26.4      24.7 
 O(Fragment=2)         25.73     15.47     16.76 
 H(Fragment=2)         25.88     15.98     15.97 
 H(Fragment=2)         26.43     15.74     17.36 
 O(Fragment=2)         17.       26.5      23.58 
 H(Fragment=2)         16.09     26.2      23.52 
 H(Fragment=2)         16.95     27.31     24.08 
 O(Fragment=2)         23.42     13.18     17.47 
 H(Fragment=2)         23.36     12.33     17.05 
 H(Fragment=2)         24.33     13.46     17.32 
 O(Fragment=2)         21.08     24.54     27.57 
 H(Fragment=2)         21.05     23.73     27.05 
 H(Fragment=2)         20.25     24.97     27.37 
 O(Fragment=2)         12.95     19.98     15.13 
 H(Fragment=2)         13.       19.54     15.98 
 H(Fragment=2)         13.3      19.34     14.51 
 O(Fragment=2)         27.73     16.48     18.29 
 H(Fragment=2)         28.33     17.22     18.44 
 H(Fragment=2)         27.27     16.37     19.13 
 O(Fragment=2)         19.52     29.12     21.04 
 H(Fragment=2)         20.42     29.38     21.21 
 H(Fragment=2)         19.52     28.17     21.13 
 O(Fragment=2)         25.15     25.94     24.81 
 H(Fragment=2)         24.81     25.32     24.16 
 H(Fragment=2)         24.7      25.7      25.62 
 O(Fragment=2)         20.65     18.8      11.08 
 H(Fragment=2)         20.44     18.32     11.88 
 H(Fragment=2)         19.87     19.33     10.9 
 O(Fragment=2)         13.81     14.42     22.25 
 H(Fragment=2)         14.09     14.28     21.35 
 H(Fragment=2)         12.87     14.6      22.18 
 O(Fragment=2)         17.14     16.83     12.77 
 H(Fragment=2)         16.69     17.14     11.99 
 H(Fragment=2)         17.61     16.04     12.48 
 O(Fragment=2)         13.1      20.97     25.35 
 H(Fragment=2)         13.56     21.78     25.13 
 H(Fragment=2)         12.92     20.56     24.51 
 O(Fragment=2)         23.27     27.93     16.41 
 H(Fragment=2)         22.75     27.13     16.48 
 H(Fragment=2)         22.78     28.49     15.81 
 O(Fragment=2)         12.64     23.74     21.99 
 H(Fragment=2)         11.69     23.83     21.92 
 H(Fragment=2)         12.84     23.91     22.91 
 O(Fragment=2)         15.76     14.6      14.32 
 H(Fragment=2)         15.26     14.97     15.05 
 H(Fragment=2)         16.1      15.36     13.85 
 O(Fragment=2)         11.15     21.17     22.83 
 H(Fragment=2)         11.18     20.23     22.64 
 H(Fragment=2)         12.05     21.46     22.69 
 O(Fragment=2)         23.84     27.56     20.82 
 H(Fragment=2)         24.72     27.61     20.45 
 H(Fragment=2)         23.35     28.23     20.34 
 O(Fragment=2)         12.48     15.33     17.13 
 H(Fragment=2)         12.96     15.58     17.93 
 H(Fragment=2)         13.06     15.59     16.42 
 O(Fragment=2)         15.66     28.12     20.63 
 H(Fragment=2)         15.24     27.3      20.4 
 H(Fragment=2)         16.59     27.91     20.68 
 O(Fragment=2)         22.84     26.67     13.96 
 H(Fragment=2)         22.14     26.04     14.14 
 H(Fragment=2)         23.57     26.37     14.5 
 O(Fragment=2)         27.94     20.36     23.57 
 H(Fragment=2)         28.23     21.14     24.04 
 H(Fragment=2)         28.35     20.44     22.71 
 O(Fragment=2)         27.54     24.05     16.26 
 H(Fragment=2)         27.53     23.19     15.85 
 H(Fragment=2)         27.3      23.88     17.17 
 O(Fragment=2)         22.28     16.15     28.6 
 H(Fragment=2)         22.06     16.47     27.73 
 H(Fragment=2)         22.85     15.4      28.44 
 O(Fragment=2)         14.05     26.13     23.38 
 H(Fragment=2)         14.27     26.25     22.46 
 H(Fragment=2)         13.5      26.88     23.59 
 O(Fragment=2)         23.39     19.87     28.16 
 H(Fragment=2)         23.53     20.81     28.28 
 H(Fragment=2)         22.63     19.66     28.71 
 O(Fragment=2)         13.98     27.31     18.01 
 H(Fragment=2)         14.86     26.94     18.05 
 H(Fragment=2)         14.05     28.03     17.38 
 O(Fragment=2)         25.19     22.64     12.57 
 H(Fragment=2)         25.28     23.58     12.72 
 H(Fragment=2)         25.48     22.23     13.39 
 O(Fragment=2)         18.56     12.42     13.88 
 H(Fragment=2)         17.85     12.68     13.3 
 H(Fragment=2)         18.69     13.18     14.45 
 O(Fragment=2)         26.24     12.41     19.67 
 H(Fragment=2)         26.64     12.1      20.48 
 H(Fragment=2)         25.49     12.94     19.95 
 O(Fragment=2)         11.38     18.67     22.23 
 H(Fragment=2)         11.3      17.85     22.71 
 H(Fragment=2)         11.04     18.47     21.36 
 O(Fragment=2)         23.22     27.73     23.72 
 H(Fragment=2)         23.96     27.67     24.33 
 H(Fragment=2)         23.62     27.75     22.85 
 O(Fragment=2)         15.66     23.02     28.38 
 H(Fragment=2)         15.01     22.45     28.78 
 H(Fragment=2)         16.17     22.44     27.81 
 O(Fragment=2)         29.3      18.94     19.98 
 H(Fragment=2)         30.06     18.99     19.4 
 H(Fragment=2)         29.06     19.85     20.14 
 O(Fragment=2)         14.11     18.06     13.09 
 H(Fragment=2)         14.92     18.26     12.61 
 H(Fragment=2)         13.42     18.48     12.58 
 O(Fragment=2)         15.86     24.97     26.54 
 H(Fragment=2)         15.89     24.15     27.03 
 H(Fragment=2)         15.01     25.35     26.75 
 O(Fragment=2)         22.15     10.82     16.85 
 H(Fragment=2)         21.68     9.99      16.72 
 H(Fragment=2)         21.47     11.46     17.06 
 O(Fragment=2)         20.39     13.25     26.33 
 H(Fragment=2)         21.27     13.16     25.97 
 H(Fragment=2)         20.05     12.35     26.36 
 O(Fragment=2)         13.14     24.07     24.98 
 H(Fragment=2)         13.74     24.77     24.72 
 H(Fragment=2)         12.28     24.49     25.03 
 O(Fragment=2)         22.68     22.56     29.19 
 H(Fragment=2)         22.25     23.38     29.44 
 H(Fragment=2)         22.94     22.7      28.27 
 O(Fragment=2)         17.75     28.53     15.48 
 H(Fragment=2)         17.43     27.63     15.55 
 H(Fragment=2)         18.7      28.44     15.45 
 O(Fragment=2)         14.29     23.06     13.43 
 H(Fragment=2)         14.25     22.62     12.58 
 H(Fragment=2)         13.93     23.93     13.26 
 O(Fragment=2)         14.49     20.06     27.93 
 H(Fragment=2)         14.07     20.21     27.08 
 H(Fragment=2)         13.91     19.44     28.37 
 O(Fragment=2)         16.24     16.       27.94 
 H(Fragment=2)         15.6      15.29     27.94 
 H(Fragment=2)         17.04     15.62     27.58 
 
 NAtoms=    385 NQM=      385 NQMF=       0 NMMI=      0 NMMIF=      0
                NMic=       0 NMicF=      0.
                    Isotopes and Nuclear Properties:
 (Nuclear quadrupole moments (NQMom) in fm**2, nuclear magnetic moments (NMagM)
  in nuclear magnetons)

  Atom         1           2           3           4           5           6           7           8           9          10
 IAtWgt=          79          16           1           1          16           1           1          16           1           1
 AtmWgt=  78.9183361  15.9949146   1.0078250   1.0078250  15.9949146   1.0078250   1.0078250  15.9949146   1.0078250   1.0078250
 NucSpn=           3           0           1           1           0           1           1           0           1           1
 AtZEff=   0.0000000   0.0000000   0.0000000   0.0000000   0.0000000   0.0000000   0.0000000   0.0000000   0.0000000   0.0000000
 NQMom=   31.3000000   0.0000000   0.0000000   0.0000000   0.0000000   0.0000000   0.0000000   0.0000000   0.0000000   0.0000000
 NMagM=    2.1063990   0.0000000   2.7928460   2.7928460   0.0000000   2.7928460   2.7928460   0.0000000   2.7928460   2.7928460
 AtZNuc=  35.0000000   8.0000000   1.0000000   1.0000000   8.0000000   1.0000000   1.0000000   8.0000000   1.0000000   1.0000000

  Atom        11          12          13          14          15          16          17          18          19          20
 IAtWgt=          16           1           1          16           1           1          16           1           1          16
 AtmWgt=  15.9949146   1.0078250   1.0078250  15.9949146   1.0078250   1.0078250  15.9949146   1.0078250   1.0078250  15.9949146
 NucSpn=           0           1           1           0           1           1           0           1           1           0
 AtZEff=   0.0000000   0.0000000   0.0000000   0.0000000   0.0000000   0.0000000   0.0000000   0.0000000   0.0000000   0.0000000
 NQMom=    0.0000000   0.0000000   0.0000000   0.0000000   0.0000000   0.0000000   0.0000000   0.0000000   0.0000000   0.0000000
 NMagM=    0.0000000   2.7928460   2.7928460   0.0000000   2.7928460   2.7928460   0.0000000   2.7928460   2.7928460   0.0000000
 AtZNuc=   8.0000000   1.0000000   1.0000000   8.0000000   1.0000000   1.0000000   8.0000000   1.0000000   1.0000000   8.0000000

  Atom        21          22          23          24          25          26          27          28          29          30
 IAtWgt=           1           1          16           1           1          16           1           1          16           1
 AtmWgt=   1.0078250   1.0078250  15.9949146   1.0078250   1.0078250  15.9949146   1.0078250   1.0078250  15.9949146   1.0078250
 NucSpn=           1           1           0           1           1           0           1           1           0           1
 AtZEff=   0.0000000   0.0000000   0.0000000   0.0000000   0.0000000   0.0000000   0.0000000   0.0000000   0.0000000   0.0000000
 NQMom=    0.0000000   0.0000000   0.0000000   0.0000000   0.0000000   0.0000000   0.0000000   0.0000000   0.0000000   0.0000000
 NMagM=    2.7928460   2.7928460   0.0000000   2.7928460   2.7928460   0.0000000   2.7928460   2.7928460   0.0000000   2.7928460
 AtZNuc=   1.0000000   1.0000000   8.0000000   1.0000000   1.0000000   8.0000000   1.0000000   1.0000000   8.0000000   1.0000000

  Atom        31          32          33          34          35          36          37          38          39          40
 IAtWgt=           1          16           1           1          16           1           1          16           1           1
 AtmWgt=   1.0078250  15.9949146   1.0078250   1.0078250  15.9949146   1.0078250   1.0078250  15.9949146   1.0078250   1.0078250
 NucSpn=           1           0           1           1           0           1           1           0           1           1
 AtZEff=   0.0000000   0.0000000   0.0000000   0.0000000   0.0000000   0.0000000   0.0000000   0.0000000   0.0000000   0.0000000
 NQMom=    0.0000000   0.0000000   0.0000000   0.0000000   0.0000000   0.0000000   0.0000000   0.0000000   0.0000000   0.0000000
 NMagM=    2.7928460   0.0000000   2.7928460   2.7928460   0.0000000   2.7928460   2.7928460   0.0000000   2.7928460   2.7928460
 AtZNuc=   1.0000000   8.0000000   1.0000000   1.0000000   8.0000000   1.0000000   1.0000000   8.0000000   1.0000000   1.0000000

  Atom        41          42          43          44          45          46          47          48          49          50
 IAtWgt=          16           1           1          16           1           1          16           1           1          16
 AtmWgt=  15.9949146   1.0078250   1.0078250  15.9949146   1.0078250   1.0078250  15.9949146   1.0078250   1.0078250  15.9949146
 NucSpn=           0           1           1           0           1           1           0           1           1           0
 AtZEff=   0.0000000   0.0000000   0.0000000   0.0000000   0.0000000   0.0000000   0.0000000   0.0000000   0.0000000   0.0000000
 NQMom=    0.0000000   0.0000000   0.0000000   0.0000000   0.0000000   0.0000000   0.0000000   0.0000000   0.0000000   0.0000000
 NMagM=    0.0000000   2.7928460   2.7928460   0.0000000   2.7928460   2.7928460   0.0000000   2.7928460   2.7928460   0.0000000
 AtZNuc=   8.0000000   1.0000000   1.0000000   8.0000000   1.0000000   1.0000000   8.0000000   1.0000000   1.0000000   8.0000000

  Atom        51          52          53          54          55          56          57          58          59          60
 IAtWgt=           1           1          16           1           1          16           1           1          16           1
 AtmWgt=   1.0078250   1.0078250  15.9949146   1.0078250   1.0078250  15.9949146   1.0078250   1.0078250  15.9949146   1.0078250
 NucSpn=           1           1           0           1           1           0           1           1           0           1
 AtZEff=   0.0000000   0.0000000   0.0000000   0.0000000   0.0000000   0.0000000   0.0000000   0.0000000   0.0000000   0.0000000
 NQMom=    0.0000000   0.0000000   0.0000000   0.0000000   0.0000000   0.0000000   0.0000000   0.0000000   0.0000000   0.0000000
 NMagM=    2.7928460   2.7928460   0.0000000   2.7928460   2.7928460   0.0000000   2.7928460   2.7928460   0.0000000   2.7928460
 AtZNuc=   1.0000000   1.0000000   8.0000000   1.0000000   1.0000000   8.0000000   1.0000000   1.0000000   8.0000000   1.0000000

  Atom        61          62          63          64          65          66          67          68          69          70
 IAtWgt=           1          16           1           1          16           1           1          16           1           1
 AtmWgt=   1.0078250  15.9949146   1.0078250   1.0078250  15.9949146   1.0078250   1.0078250  15.9949146   1.0078250   1.0078250
 NucSpn=           1           0           1           1           0           1           1           0           1           1
 AtZEff=   0.0000000   0.0000000   0.0000000   0.0000000   0.0000000   0.0000000   0.0000000   0.0000000   0.0000000   0.0000000
 NQMom=    0.0000000   0.0000000   0.0000000   0.0000000   0.0000000   0.0000000   0.0000000   0.0000000   0.0000000   0.0000000
 NMagM=    2.7928460   0.0000000   2.7928460   2.7928460   0.0000000   2.7928460   2.7928460   0.0000000   2.7928460   2.7928460
 AtZNuc=   1.0000000   8.0000000   1.0000000   1.0000000   8.0000000   1.0000000   1.0000000   8.0000000   1.0000000   1.0000000

  Atom        71          72          73          74          75          76          77          78          79          80
 IAtWgt=          16           1           1          16           1           1          16           1           1          16
 AtmWgt=  15.9949146   1.0078250   1.0078250  15.9949146   1.0078250   1.0078250  15.9949146   1.0078250   1.0078250  15.9949146
 NucSpn=           0           1           1           0           1           1           0           1           1           0
 AtZEff=   0.0000000   0.0000000   0.0000000   0.0000000   0.0000000   0.0000000   0.0000000   0.0000000   0.0000000   0.0000000
 NQMom=    0.0000000   0.0000000   0.0000000   0.0000000   0.0000000   0.0000000   0.0000000   0.0000000   0.0000000   0.0000000
 NMagM=    0.0000000   2.7928460   2.7928460   0.0000000   2.7928460   2.7928460   0.0000000   2.7928460   2.7928460   0.0000000
 AtZNuc=   8.0000000   1.0000000   1.0000000   8.0000000   1.0000000   1.0000000   8.0000000   1.0000000   1.0000000   8.0000000

  Atom        81          82          83          84          85          86          87          88          89          90
 IAtWgt=           1           1          16           1           1          16           1           1          16           1
 AtmWgt=   1.0078250   1.0078250  15.9949146   1.0078250   1.0078250  15.9949146   1.0078250   1.0078250  15.9949146   1.0078250
 NucSpn=           1           1           0           1           1           0           1           1           0           1
 AtZEff=   0.0000000   0.0000000   0.0000000   0.0000000   0.0000000   0.0000000   0.0000000   0.0000000   0.0000000   0.0000000
 NQMom=    0.0000000   0.0000000   0.0000000   0.0000000   0.0000000   0.0000000   0.0000000   0.0000000   0.0000000   0.0000000
 NMagM=    2.7928460   2.7928460   0.0000000   2.7928460   2.7928460   0.0000000   2.7928460   2.7928460   0.0000000   2.7928460
 AtZNuc=   1.0000000   1.0000000   8.0000000   1.0000000   1.0000000   8.0000000   1.0000000   1.0000000   8.0000000   1.0000000

  Atom        91          92          93          94          95          96          97          98          99         100
 IAtWgt=           1          16           1           1          16           1           1          16           1           1
 AtmWgt=   1.0078250  15.9949146   1.0078250   1.0078250  15.9949146   1.0078250   1.0078250  15.9949146   1.0078250   1.0078250
 NucSpn=           1           0           1           1           0           1           1           0           1           1
 AtZEff=   0.0000000   0.0000000   0.0000000   0.0000000   0.0000000   0.0000000   0.0000000   0.0000000   0.0000000   0.0000000
 NQMom=    0.0000000   0.0000000   0.0000000   0.0000000   0.0000000   0.0000000   0.0000000   0.0000000   0.0000000   0.0000000
 NMagM=    2.7928460   0.0000000   2.7928460   2.7928460   0.0000000   2.7928460   2.7928460   0.0000000   2.7928460   2.7928460
 AtZNuc=   1.0000000   8.0000000   1.0000000   1.0000000   8.0000000   1.0000000   1.0000000   8.0000000   1.0000000   1.0000000

  Atom       101         102         103         104         105         106         107         108         109         110
 IAtWgt=          16           1           1          16           1           1          16           1           1          16
 AtmWgt=  15.9949146   1.0078250   1.0078250  15.9949146   1.0078250   1.0078250  15.9949146   1.0078250   1.0078250  15.9949146
 NucSpn=           0           1           1           0           1           1           0           1           1           0
 AtZEff=   0.0000000   0.0000000   0.0000000   0.0000000   0.0000000   0.0000000   0.0000000   0.0000000   0.0000000   0.0000000
 NQMom=    0.0000000   0.0000000   0.0000000   0.0000000   0.0000000   0.0000000   0.0000000   0.0000000   0.0000000   0.0000000
 NMagM=    0.0000000   2.7928460   2.7928460   0.0000000   2.7928460   2.7928460   0.0000000   2.7928460   2.7928460   0.0000000
 AtZNuc=   8.0000000   1.0000000   1.0000000   8.0000000   1.0000000   1.0000000   8.0000000   1.0000000   1.0000000   8.0000000

  Atom       111         112         113         114         115         116         117         118         119         120
 IAtWgt=           1           1          16           1           1          16           1           1          16           1
 AtmWgt=   1.0078250   1.0078250  15.9949146   1.0078250   1.0078250  15.9949146   1.0078250   1.0078250  15.9949146   1.0078250
 NucSpn=           1           1           0           1           1           0           1           1           0           1
 AtZEff=   0.0000000   0.0000000   0.0000000   0.0000000   0.0000000   0.0000000   0.0000000   0.0000000   0.0000000   0.0000000
 NQMom=    0.0000000   0.0000000   0.0000000   0.0000000   0.0000000   0.0000000   0.0000000   0.0000000   0.0000000   0.0000000
 NMagM=    2.7928460   2.7928460   0.0000000   2.7928460   2.7928460   0.0000000   2.7928460   2.7928460   0.0000000   2.7928460
 AtZNuc=   1.0000000   1.0000000   8.0000000   1.0000000   1.0000000   8.0000000   1.0000000   1.0000000   8.0000000   1.0000000

  Atom       121         122         123         124         125         126         127         128         129         130
 IAtWgt=           1          16           1           1          16           1           1          16           1           1
 AtmWgt=   1.0078250  15.9949146   1.0078250   1.0078250  15.9949146   1.0078250   1.0078250  15.9949146   1.0078250   1.0078250
 NucSpn=           1           0           1           1           0           1           1           0           1           1
 AtZEff=   0.0000000   0.0000000   0.0000000   0.0000000   0.0000000   0.0000000   0.0000000   0.0000000   0.0000000   0.0000000
 NQMom=    0.0000000   0.0000000   0.0000000   0.0000000   0.0000000   0.0000000   0.0000000   0.0000000   0.0000000   0.0000000
 NMagM=    2.7928460   0.0000000   2.7928460   2.7928460   0.0000000   2.7928460   2.7928460   0.0000000   2.7928460   2.7928460
 AtZNuc=   1.0000000   8.0000000   1.0000000   1.0000000   8.0000000   1.0000000   1.0000000   8.0000000   1.0000000   1.0000000

  Atom       131         132         133         134         135         136         137         138         139         140
 IAtWgt=          16           1           1          16           1           1          16           1           1          16
 AtmWgt=  15.9949146   1.0078250   1.0078250  15.9949146   1.0078250   1.0078250  15.9949146   1.0078250   1.0078250  15.9949146
 NucSpn=           0           1           1           0           1           1           0           1           1           0
 AtZEff=   0.0000000   0.0000000   0.0000000   0.0000000   0.0000000   0.0000000   0.0000000   0.0000000   0.0000000   0.0000000
 NQMom=    0.0000000   0.0000000   0.0000000   0.0000000   0.0000000   0.0000000   0.0000000   0.0000000   0.0000000   0.0000000
 NMagM=    0.0000000   2.7928460   2.7928460   0.0000000   2.7928460   2.7928460   0.0000000   2.7928460   2.7928460   0.0000000
 AtZNuc=   8.0000000   1.0000000   1.0000000   8.0000000   1.0000000   1.0000000   8.0000000   1.0000000   1.0000000   8.0000000

  Atom       141         142         143         144         145         146         147         148         149         150
 IAtWgt=           1           1          16           1           1          16           1           1          16           1
 AtmWgt=   1.0078250   1.0078250  15.9949146   1.0078250   1.0078250  15.9949146   1.0078250   1.0078250  15.9949146   1.0078250
 NucSpn=           1           1           0           1           1           0           1           1           0           1
 AtZEff=   0.0000000   0.0000000   0.0000000   0.0000000   0.0000000   0.0000000   0.0000000   0.0000000   0.0000000   0.0000000
 NQMom=    0.0000000   0.0000000   0.0000000   0.0000000   0.0000000   0.0000000   0.0000000   0.0000000   0.0000000   0.0000000
 NMagM=    2.7928460   2.7928460   0.0000000   2.7928460   2.7928460   0.0000000   2.7928460   2.7928460   0.0000000   2.7928460
 AtZNuc=   1.0000000   1.0000000   8.0000000   1.0000000   1.0000000   8.0000000   1.0000000   1.0000000   8.0000000   1.0000000

  Atom       151         152         153         154         155         156         157         158         159         160
 IAtWgt=           1          16           1           1          16           1           1          16           1           1
 AtmWgt=   1.0078250  15.9949146   1.0078250   1.0078250  15.9949146   1.0078250   1.0078250  15.9949146   1.0078250   1.0078250
 NucSpn=           1           0           1           1           0           1           1           0           1           1
 AtZEff=   0.0000000   0.0000000   0.0000000   0.0000000   0.0000000   0.0000000   0.0000000   0.0000000   0.0000000   0.0000000
 NQMom=    0.0000000   0.0000000   0.0000000   0.0000000   0.0000000   0.0000000   0.0000000   0.0000000   0.0000000   0.0000000
 NMagM=    2.7928460   0.0000000   2.7928460   2.7928460   0.0000000   2.7928460   2.7928460   0.0000000   2.7928460   2.7928460
 AtZNuc=   1.0000000   8.0000000   1.0000000   1.0000000   8.0000000   1.0000000   1.0000000   8.0000000   1.0000000   1.0000000

  Atom       161         162         163         164         165         166         167         168         169         170
 IAtWgt=          16           1           1          16           1           1          16           1           1          16
 AtmWgt=  15.9949146   1.0078250   1.0078250  15.9949146   1.0078250   1.0078250  15.9949146   1.0078250   1.0078250  15.9949146
 NucSpn=           0           1           1           0           1           1           0           1           1           0
 AtZEff=   0.0000000   0.0000000   0.0000000   0.0000000   0.0000000   0.0000000   0.0000000   0.0000000   0.0000000   0.0000000
 NQMom=    0.0000000   0.0000000   0.0000000   0.0000000   0.0000000   0.0000000   0.0000000   0.0000000   0.0000000   0.0000000
 NMagM=    0.0000000   2.7928460   2.7928460   0.0000000   2.7928460   2.7928460   0.0000000   2.7928460   2.7928460   0.0000000
 AtZNuc=   8.0000000   1.0000000   1.0000000   8.0000000   1.0000000   1.0000000   8.0000000   1.0000000   1.0000000   8.0000000

  Atom       171         172         173         174         175         176         177         178         179         180
 IAtWgt=           1           1          16           1           1          16           1           1          16           1
 AtmWgt=   1.0078250   1.0078250  15.9949146   1.0078250   1.0078250  15.9949146   1.0078250   1.0078250  15.9949146   1.0078250
 NucSpn=           1           1           0           1           1           0           1           1           0           1
 AtZEff=   0.0000000   0.0000000   0.0000000   0.0000000   0.0000000   0.0000000   0.0000000   0.0000000   0.0000000   0.0000000
 NQMom=    0.0000000   0.0000000   0.0000000   0.0000000   0.0000000   0.0000000   0.0000000   0.0000000   0.0000000   0.0000000
 NMagM=    2.7928460   2.7928460   0.0000000   2.7928460   2.7928460   0.0000000   2.7928460   2.7928460   0.0000000   2.7928460
 AtZNuc=   1.0000000   1.0000000   8.0000000   1.0000000   1.0000000   8.0000000   1.0000000   1.0000000   8.0000000   1.0000000

  Atom       181         182         183         184         185         186         187         188         189         190
 IAtWgt=           1          16           1           1          16           1           1          16           1           1
 AtmWgt=   1.0078250  15.9949146   1.0078250   1.0078250  15.9949146   1.0078250   1.0078250  15.9949146   1.0078250   1.0078250
 NucSpn=           1           0           1           1           0           1           1           0           1           1
 AtZEff=   0.0000000   0.0000000   0.0000000   0.0000000   0.0000000   0.0000000   0.0000000   0.0000000   0.0000000   0.0000000
 NQMom=    0.0000000   0.0000000   0.0000000   0.0000000   0.0000000   0.0000000   0.0000000   0.0000000   0.0000000   0.0000000
 NMagM=    2.7928460   0.0000000   2.7928460   2.7928460   0.0000000   2.7928460   2.7928460   0.0000000   2.7928460   2.7928460
 AtZNuc=   1.0000000   8.0000000   1.0000000   1.0000000   8.0000000   1.0000000   1.0000000   8.0000000   1.0000000   1.0000000

  Atom       191         192         193         194         195         196         197         198         199         200
 IAtWgt=          16           1           1          16           1           1          16           1           1          16
 AtmWgt=  15.9949146   1.0078250   1.0078250  15.9949146   1.0078250   1.0078250  15.9949146   1.0078250   1.0078250  15.9949146
 NucSpn=           0           1           1           0           1           1           0           1           1           0
 AtZEff=   0.0000000   0.0000000   0.0000000   0.0000000   0.0000000   0.0000000   0.0000000   0.0000000   0.0000000   0.0000000
 NQMom=    0.0000000   0.0000000   0.0000000   0.0000000   0.0000000   0.0000000   0.0000000   0.0000000   0.0000000   0.0000000
 NMagM=    0.0000000   2.7928460   2.7928460   0.0000000   2.7928460   2.7928460   0.0000000   2.7928460   2.7928460   0.0000000
 AtZNuc=   8.0000000   1.0000000   1.0000000   8.0000000   1.0000000   1.0000000   8.0000000   1.0000000   1.0000000   8.0000000

  Atom       201         202         203         204         205         206         207         208         209         210
 IAtWgt=           1           1          16           1           1          16           1           1          16           1
 AtmWgt=   1.0078250   1.0078250  15.9949146   1.0078250   1.0078250  15.9949146   1.0078250   1.0078250  15.9949146   1.0078250
 NucSpn=           1           1           0           1           1           0           1           1           0           1
 AtZEff=   0.0000000   0.0000000   0.0000000   0.0000000   0.0000000   0.0000000   0.0000000   0.0000000   0.0000000   0.0000000
 NQMom=    0.0000000   0.0000000   0.0000000   0.0000000   0.0000000   0.0000000   0.0000000   0.0000000   0.0000000   0.0000000
 NMagM=    2.7928460   2.7928460   0.0000000   2.7928460   2.7928460   0.0000000   2.7928460   2.7928460   0.0000000   2.7928460
 AtZNuc=   1.0000000   1.0000000   8.0000000   1.0000000   1.0000000   8.0000000   1.0000000   1.0000000   8.0000000   1.0000000

  Atom       211         212         213         214         215         216         217         218         219         220
 IAtWgt=           1          16           1           1          16           1           1          16           1           1
 AtmWgt=   1.0078250  15.9949146   1.0078250   1.0078250  15.9949146   1.0078250   1.0078250  15.9949146   1.0078250   1.0078250
 NucSpn=           1           0           1           1           0           1           1           0           1           1
 AtZEff=   0.0000000   0.0000000   0.0000000   0.0000000   0.0000000   0.0000000   0.0000000   0.0000000   0.0000000   0.0000000
 NQMom=    0.0000000   0.0000000   0.0000000   0.0000000   0.0000000   0.0000000   0.0000000   0.0000000   0.0000000   0.0000000
 NMagM=    2.7928460   0.0000000   2.7928460   2.7928460   0.0000000   2.7928460   2.7928460   0.0000000   2.7928460   2.7928460
 AtZNuc=   1.0000000   8.0000000   1.0000000   1.0000000   8.0000000   1.0000000   1.0000000   8.0000000   1.0000000   1.0000000

  Atom       221         222         223         224         225         226         227         228         229         230
 IAtWgt=          16           1           1          16           1           1          16           1           1          16
 AtmWgt=  15.9949146   1.0078250   1.0078250  15.9949146   1.0078250   1.0078250  15.9949146   1.0078250   1.0078250  15.9949146
 NucSpn=           0           1           1           0           1           1           0           1           1           0
 AtZEff=   0.0000000   0.0000000   0.0000000   0.0000000   0.0000000   0.0000000   0.0000000   0.0000000   0.0000000   0.0000000
 NQMom=    0.0000000   0.0000000   0.0000000   0.0000000   0.0000000   0.0000000   0.0000000   0.0000000   0.0000000   0.0000000
 NMagM=    0.0000000   2.7928460   2.7928460   0.0000000   2.7928460   2.7928460   0.0000000   2.7928460   2.7928460   0.0000000
 AtZNuc=   8.0000000   1.0000000   1.0000000   8.0000000   1.0000000   1.0000000   8.0000000   1.0000000   1.0000000   8.0000000

  Atom       231         232         233         234         235         236         237         238         239         240
 IAtWgt=           1           1          16           1           1          16           1           1          16           1
 AtmWgt=   1.0078250   1.0078250  15.9949146   1.0078250   1.0078250  15.9949146   1.0078250   1.0078250  15.9949146   1.0078250
 NucSpn=           1           1           0           1           1           0           1           1           0           1
 AtZEff=   0.0000000   0.0000000   0.0000000   0.0000000   0.0000000   0.0000000   0.0000000   0.0000000   0.0000000   0.0000000
 NQMom=    0.0000000   0.0000000   0.0000000   0.0000000   0.0000000   0.0000000   0.0000000   0.0000000   0.0000000   0.0000000
 NMagM=    2.7928460   2.7928460   0.0000000   2.7928460   2.7928460   0.0000000   2.7928460   2.7928460   0.0000000   2.7928460
 AtZNuc=   1.0000000   1.0000000   8.0000000   1.0000000   1.0000000   8.0000000   1.0000000   1.0000000   8.0000000   1.0000000

  Atom       241         242         243         244         245         246         247         248         249         250
 IAtWgt=           1          16           1           1          16           1           1          16           1           1
 AtmWgt=   1.0078250  15.9949146   1.0078250   1.0078250  15.9949146   1.0078250   1.0078250  15.9949146   1.0078250   1.0078250
 NucSpn=           1           0           1           1           0           1           1           0           1           1
 AtZEff=   0.0000000   0.0000000   0.0000000   0.0000000   0.0000000   0.0000000   0.0000000   0.0000000   0.0000000   0.0000000
 NQMom=    0.0000000   0.0000000   0.0000000   0.0000000   0.0000000   0.0000000   0.0000000   0.0000000   0.0000000   0.0000000
 NMagM=    2.7928460   0.0000000   2.7928460   2.7928460   0.0000000   2.7928460   2.7928460   0.0000000   2.7928460   2.7928460
 AtZNuc=   1.0000000   8.0000000   1.0000000   1.0000000   8.0000000   1.0000000   1.0000000   8.0000000   1.0000000   1.0000000

  Atom       251         252         253         254         255         256         257         258         259         260
 IAtWgt=          16           1           1          16           1           1          16           1           1          16
 AtmWgt=  15.9949146   1.0078250   1.0078250  15.9949146   1.0078250   1.0078250  15.9949146   1.0078250   1.0078250  15.9949146
 NucSpn=           0           1           1           0           1           1           0           1           1           0
 AtZEff=   0.0000000   0.0000000   0.0000000   0.0000000   0.0000000   0.0000000   0.0000000   0.0000000   0.0000000   0.0000000
 NQMom=    0.0000000   0.0000000   0.0000000   0.0000000   0.0000000   0.0000000   0.0000000   0.0000000   0.0000000   0.0000000
 NMagM=    0.0000000   2.7928460   2.7928460   0.0000000   2.7928460   2.7928460   0.0000000   2.7928460   2.7928460   0.0000000
 AtZNuc=   8.0000000   1.0000000   1.0000000   8.0000000   1.0000000   1.0000000   8.0000000   1.0000000   1.0000000   8.0000000

  Atom       261         262         263         264         265         266         267         268         269         270
 IAtWgt=           1           1          16           1           1          16           1           1          16           1
 AtmWgt=   1.0078250   1.0078250  15.9949146   1.0078250   1.0078250  15.9949146   1.0078250   1.0078250  15.9949146   1.0078250
 NucSpn=           1           1           0           1           1           0           1           1           0           1
 AtZEff=   0.0000000   0.0000000   0.0000000   0.0000000   0.0000000   0.0000000   0.0000000   0.0000000   0.0000000   0.0000000
 NQMom=    0.0000000   0.0000000   0.0000000   0.0000000   0.0000000   0.0000000   0.0000000   0.0000000   0.0000000   0.0000000
 NMagM=    2.7928460   2.7928460   0.0000000   2.7928460   2.7928460   0.0000000   2.7928460   2.7928460   0.0000000   2.7928460
 AtZNuc=   1.0000000   1.0000000   8.0000000   1.0000000   1.0000000   8.0000000   1.0000000   1.0000000   8.0000000   1.0000000

  Atom       271         272         273         274         275         276         277         278         279         280
 IAtWgt=           1          16           1           1          16           1           1          16           1           1
 AtmWgt=   1.0078250  15.9949146   1.0078250   1.0078250  15.9949146   1.0078250   1.0078250  15.9949146   1.0078250   1.0078250
 NucSpn=           1           0           1           1           0           1           1           0           1           1
 AtZEff=   0.0000000   0.0000000   0.0000000   0.0000000   0.0000000   0.0000000   0.0000000   0.0000000   0.0000000   0.0000000
 NQMom=    0.0000000   0.0000000   0.0000000   0.0000000   0.0000000   0.0000000   0.0000000   0.0000000   0.0000000   0.0000000
 NMagM=    2.7928460   0.0000000   2.7928460   2.7928460   0.0000000   2.7928460   2.7928460   0.0000000   2.7928460   2.7928460
 AtZNuc=   1.0000000   8.0000000   1.0000000   1.0000000   8.0000000   1.0000000   1.0000000   8.0000000   1.0000000   1.0000000

  Atom       281         282         283         284         285         286         287         288         289         290
 IAtWgt=          16           1           1          16           1           1          16           1           1          16
 AtmWgt=  15.9949146   1.0078250   1.0078250  15.9949146   1.0078250   1.0078250  15.9949146   1.0078250   1.0078250  15.9949146
 NucSpn=           0           1           1           0           1           1           0           1           1           0
 AtZEff=   0.0000000   0.0000000   0.0000000   0.0000000   0.0000000   0.0000000   0.0000000   0.0000000   0.0000000   0.0000000
 NQMom=    0.0000000   0.0000000   0.0000000   0.0000000   0.0000000   0.0000000   0.0000000   0.0000000   0.0000000   0.0000000
 NMagM=    0.0000000   2.7928460   2.7928460   0.0000000   2.7928460   2.7928460   0.0000000   2.7928460   2.7928460   0.0000000
 AtZNuc=   8.0000000   1.0000000   1.0000000   8.0000000   1.0000000   1.0000000   8.0000000   1.0000000   1.0000000   8.0000000

  Atom       291         292         293         294         295         296         297         298         299         300
 IAtWgt=           1           1          16           1           1          16           1           1          16           1
 AtmWgt=   1.0078250   1.0078250  15.9949146   1.0078250   1.0078250  15.9949146   1.0078250   1.0078250  15.9949146   1.0078250
 NucSpn=           1           1           0           1           1           0           1           1           0           1
 AtZEff=   0.0000000   0.0000000   0.0000000   0.0000000   0.0000000   0.0000000   0.0000000   0.0000000   0.0000000   0.0000000
 NQMom=    0.0000000   0.0000000   0.0000000   0.0000000   0.0000000   0.0000000   0.0000000   0.0000000   0.0000000   0.0000000
 NMagM=    2.7928460   2.7928460   0.0000000   2.7928460   2.7928460   0.0000000   2.7928460   2.7928460   0.0000000   2.7928460
 AtZNuc=   1.0000000   1.0000000   8.0000000   1.0000000   1.0000000   8.0000000   1.0000000   1.0000000   8.0000000   1.0000000

  Atom       301         302         303         304         305         306         307         308         309         310
 IAtWgt=           1          16           1           1          16           1           1          16           1           1
 AtmWgt=   1.0078250  15.9949146   1.0078250   1.0078250  15.9949146   1.0078250   1.0078250  15.9949146   1.0078250   1.0078250
 NucSpn=           1           0           1           1           0           1           1           0           1           1
 AtZEff=   0.0000000   0.0000000   0.0000000   0.0000000   0.0000000   0.0000000   0.0000000   0.0000000   0.0000000   0.0000000
 NQMom=    0.0000000   0.0000000   0.0000000   0.0000000   0.0000000   0.0000000   0.0000000   0.0000000   0.0000000   0.0000000
 NMagM=    2.7928460   0.0000000   2.7928460   2.7928460   0.0000000   2.7928460   2.7928460   0.0000000   2.7928460   2.7928460
 AtZNuc=   1.0000000   8.0000000   1.0000000   1.0000000   8.0000000   1.0000000   1.0000000   8.0000000   1.0000000   1.0000000

  Atom       311         312         313         314         315         316         317         318         319         320
 IAtWgt=          16           1           1          16           1           1          16           1           1          16
 AtmWgt=  15.9949146   1.0078250   1.0078250  15.9949146   1.0078250   1.0078250  15.9949146   1.0078250   1.0078250  15.9949146
 NucSpn=           0           1           1           0           1           1           0           1           1           0
 AtZEff=   0.0000000   0.0000000   0.0000000   0.0000000   0.0000000   0.0000000   0.0000000   0.0000000   0.0000000   0.0000000
 NQMom=    0.0000000   0.0000000   0.0000000   0.0000000   0.0000000   0.0000000   0.0000000   0.0000000   0.0000000   0.0000000
 NMagM=    0.0000000   2.7928460   2.7928460   0.0000000   2.7928460   2.7928460   0.0000000   2.7928460   2.7928460   0.0000000
 AtZNuc=   8.0000000   1.0000000   1.0000000   8.0000000   1.0000000   1.0000000   8.0000000   1.0000000   1.0000000   8.0000000

  Atom       321         322         323         324         325         326         327         328         329         330
 IAtWgt=           1           1          16           1           1          16           1           1          16           1
 AtmWgt=   1.0078250   1.0078250  15.9949146   1.0078250   1.0078250  15.9949146   1.0078250   1.0078250  15.9949146   1.0078250
 NucSpn=           1           1           0           1           1           0           1           1           0           1
 AtZEff=   0.0000000   0.0000000   0.0000000   0.0000000   0.0000000   0.0000000   0.0000000   0.0000000   0.0000000   0.0000000
 NQMom=    0.0000000   0.0000000   0.0000000   0.0000000   0.0000000   0.0000000   0.0000000   0.0000000   0.0000000   0.0000000
 NMagM=    2.7928460   2.7928460   0.0000000   2.7928460   2.7928460   0.0000000   2.7928460   2.7928460   0.0000000   2.7928460
 AtZNuc=   1.0000000   1.0000000   8.0000000   1.0000000   1.0000000   8.0000000   1.0000000   1.0000000   8.0000000   1.0000000

  Atom       331         332         333         334         335         336         337         338         339         340
 IAtWgt=           1          16           1           1          16           1           1          16           1           1
 AtmWgt=   1.0078250  15.9949146   1.0078250   1.0078250  15.9949146   1.0078250   1.0078250  15.9949146   1.0078250   1.0078250
 NucSpn=           1           0           1           1           0           1           1           0           1           1
 AtZEff=   0.0000000   0.0000000   0.0000000   0.0000000   0.0000000   0.0000000   0.0000000   0.0000000   0.0000000   0.0000000
 NQMom=    0.0000000   0.0000000   0.0000000   0.0000000   0.0000000   0.0000000   0.0000000   0.0000000   0.0000000   0.0000000
 NMagM=    2.7928460   0.0000000   2.7928460   2.7928460   0.0000000   2.7928460   2.7928460   0.0000000   2.7928460   2.7928460
 AtZNuc=   1.0000000   8.0000000   1.0000000   1.0000000   8.0000000   1.0000000   1.0000000   8.0000000   1.0000000   1.0000000

  Atom       341         342         343         344         345         346         347         348         349         350
 IAtWgt=          16           1           1          16           1           1          16           1           1          16
 AtmWgt=  15.9949146   1.0078250   1.0078250  15.9949146   1.0078250   1.0078250  15.9949146   1.0078250   1.0078250  15.9949146
 NucSpn=           0           1           1           0           1           1           0           1           1           0
 AtZEff=   0.0000000   0.0000000   0.0000000   0.0000000   0.0000000   0.0000000   0.0000000   0.0000000   0.0000000   0.0000000
 NQMom=    0.0000000   0.0000000   0.0000000   0.0000000   0.0000000   0.0000000   0.0000000   0.0000000   0.0000000   0.0000000
 NMagM=    0.0000000   2.7928460   2.7928460   0.0000000   2.7928460   2.7928460   0.0000000   2.7928460   2.7928460   0.0000000
 AtZNuc=   8.0000000   1.0000000   1.0000000   8.0000000   1.0000000   1.0000000   8.0000000   1.0000000   1.0000000   8.0000000

  Atom       351         352         353         354         355         356         357         358         359         360
 IAtWgt=           1           1          16           1           1          16           1           1          16           1
 AtmWgt=   1.0078250   1.0078250  15.9949146   1.0078250   1.0078250  15.9949146   1.0078250   1.0078250  15.9949146   1.0078250
 NucSpn=           1           1           0           1           1           0           1           1           0           1
 AtZEff=   0.0000000   0.0000000   0.0000000   0.0000000   0.0000000   0.0000000   0.0000000   0.0000000   0.0000000   0.0000000
 NQMom=    0.0000000   0.0000000   0.0000000   0.0000000   0.0000000   0.0000000   0.0000000   0.0000000   0.0000000   0.0000000
 NMagM=    2.7928460   2.7928460   0.0000000   2.7928460   2.7928460   0.0000000   2.7928460   2.7928460   0.0000000   2.7928460
 AtZNuc=   1.0000000   1.0000000   8.0000000   1.0000000   1.0000000   8.0000000   1.0000000   1.0000000   8.0000000   1.0000000

  Atom       361         362         363         364         365         366         367         368         369         370
 IAtWgt=           1          16           1           1          16           1           1          16           1           1
 AtmWgt=   1.0078250  15.9949146   1.0078250   1.0078250  15.9949146   1.0078250   1.0078250  15.9949146   1.0078250   1.0078250
 NucSpn=           1           0           1           1           0           1           1           0           1           1
 AtZEff=   0.0000000   0.0000000   0.0000000   0.0000000   0.0000000   0.0000000   0.0000000   0.0000000   0.0000000   0.0000000
 NQMom=    0.0000000   0.0000000   0.0000000   0.0000000   0.0000000   0.0000000   0.0000000   0.0000000   0.0000000   0.0000000
 NMagM=    2.7928460   0.0000000   2.7928460   2.7928460   0.0000000   2.7928460   2.7928460   0.0000000   2.7928460   2.7928460
 AtZNuc=   1.0000000   8.0000000   1.0000000   1.0000000   8.0000000   1.0000000   1.0000000   8.0000000   1.0000000   1.0000000

  Atom       371         372         373         374         375         376         377         378         379         380
 IAtWgt=          16           1           1          16           1           1          16           1           1          16
 AtmWgt=  15.9949146   1.0078250   1.0078250  15.9949146   1.0078250   1.0078250  15.9949146   1.0078250   1.0078250  15.9949146
 NucSpn=           0           1           1           0           1           1           0           1           1           0
 AtZEff=   0.0000000   0.0000000   0.0000000   0.0000000   0.0000000   0.0000000   0.0000000   0.0000000   0.0000000   0.0000000
 NQMom=    0.0000000   0.0000000   0.0000000   0.0000000   0.0000000   0.0000000   0.0000000   0.0000000   0.0000000   0.0000000
 NMagM=    0.0000000   2.7928460   2.7928460   0.0000000   2.7928460   2.7928460   0.0000000   2.7928460   2.7928460   0.0000000
 AtZNuc=   8.0000000   1.0000000   1.0000000   8.0000000   1.0000000   1.0000000   8.0000000   1.0000000   1.0000000   8.0000000

  Atom       381         382         383         384         385
 IAtWgt=           1           1          16           1           1
 AtmWgt=   1.0078250   1.0078250  15.9949146   1.0078250   1.0078250
 NucSpn=           1           1           0           1           1
 AtZEff=   0.0000000   0.0000000   0.0000000   0.0000000   0.0000000
 NQMom=    0.0000000   0.0000000   0.0000000   0.0000000   0.0000000
 NMagM=    2.7928460   2.7928460   0.0000000   2.7928460   2.7928460
 AtZNuc=   1.0000000   1.0000000   8.0000000   1.0000000   1.0000000
 Leave Link  101 at Wed May  9 11:01:48 2018, MaxMem= 14763950080 cpu:        33.6
 (Enter /cm/shared/gaussian/g09.e01/intel64-sandybridge/g09/l103.exe)

 GradGradGradGradGradGradGradGradGradGradGradGradGradGradGradGradGradGrad
 Berny optimization.
 Initialization pass.
 Trust Radius=3.00D-01 FncErr=1.00D-07 GrdErr=1.00D-07
 Number of steps in this run=      2 maximum allowed number of steps=      2.
 GradGradGradGradGradGradGradGradGradGradGradGradGradGradGradGradGradGrad

 Leave Link  103 at Wed May  9 11:01:48 2018, MaxMem= 14763950080 cpu:         3.7
 (Enter /cm/shared/gaussian/g09.e01/intel64-sandybridge/g09/l202.exe)
 Symmetry turned off by external request.
 Stoichiometry    BrH256O128(1-)
 Framework group  C1[X(BrH256O128)]
 Deg. of freedom  1149
 Full point group                 C1      NOp   1
                          Input orientation:                          
 ---------------------------------------------------------------------
 Center     Atomic      Atomic             Coordinates (Angstroms)
 Number     Number       Type             X           Y           Z
 ---------------------------------------------------------------------
      1         35           0       20.000000   20.000000   20.000000
      2          8           0       22.600000   20.850000   18.470000
      3          1           0       21.840000   20.490000   18.920000
      4          1           0       22.580000   21.790000   18.660000
      5          8           0       19.650000   17.990000   22.420000
      6          1           0       19.570000   18.570000   21.660000
      7          1           0       18.840000   18.150000   22.920000
      8          8           0       18.990000   17.180000   18.370000
      9          1           0       18.360000   17.490000   17.730000
     10          1           0       19.510000   17.950000   18.590000
     11          8           0       17.110000   21.070000   17.840000
     12          1           0       16.790000   21.530000   18.620000
     13          1           0       17.930000   20.660000   18.120000
     14          8           0       17.050000   20.950000   22.560000
     15          1           0       17.440000   21.070000   21.690000
     16          1           0       17.660000   20.370000   23.020000
     17          8           0       21.090000   22.440000   22.800000
     18          1           0       21.140000   21.500000   22.650000
     19          1           0       21.940000   22.660000   23.180000
     20          8           0       19.920000   19.490000   15.810000
     21          1           0       19.890000   19.720000   16.750000
     22          1           0       20.850000   19.400000   15.620000
     23          8           0       20.470000   23.600000   20.560000
     24          1           0       19.640000   23.450000   20.110000
     25          1           0       20.460000   22.970000   21.290000
     26          8           0       22.680000   18.060000   21.980000
     27          1           0       21.760000   18.140000   22.260000
     28          1           0       22.630000   17.970000   21.030000
     29          8           0       15.790000   18.910000   19.860000
     30          1           0       15.570000   18.640000   20.750000
     31          1           0       16.730000   18.740000   19.790000
     32          8           0       22.730000   23.710000   18.890000
     33          1           0       21.890000   23.440000   19.240000
     34          1           0       22.560000   24.580000   18.520000
     35          8           0       22.710000   20.310000   23.370000
     36          1           0       22.860000   19.580000   22.770000
     37          1           0       23.400000   20.940000   23.160000
     38          8           0       17.930000   23.560000   19.490000
     39          1           0       17.970000   23.950000   20.360000
     40          1           0       16.990000   23.550000   19.280000
     41          8           0       21.430000   16.540000   16.700000
     42          1           0       20.550000   16.530000   17.070000
     43          1           0       22.010000   16.560000   17.450000
     44          8           0       18.910000   24.440000   16.990000
     45          1           0       18.710000   23.970000   17.800000
     46          1           0       18.790000   25.360000   17.200000
     47          8           0       25.230000   19.960000   18.230000
     48          1           0       24.930000   19.300000   17.610000
     49          1           0       24.450000   20.470000   18.440000
     50          8           0       18.870000   14.530000   19.080000
     51          1           0       19.210000   15.420000   18.940000
     52          1           0       19.630000   14.030000   19.380000
     53          8           0       22.570000   19.660000   15.640000
     54          1           0       23.490000   19.390000   15.750000
     55          1           0       22.540000   20.560000   15.980000
     56          8           0       15.430000   19.190000   16.740000
     57          1           0       15.880000   19.530000   17.520000
     58          1           0       15.760000   19.740000   16.020000
     59          8           0       24.710000   22.720000   20.650000
     60          1           0       24.000000   22.880000   20.030000
     61          1           0       24.960000   23.590000   20.970000
     62          8           0       17.750000   22.070000   15.230000
     63          1           0       17.440000   22.140000   16.130000
     64          1           0       17.320000   21.280000   14.890000
     65          8           0       17.880000   15.620000   22.930000
     66          1           0       18.420000   16.330000   23.290000
     67          1           0       17.920000   15.740000   21.980000
     68          8           0       21.030000   25.090000   23.230000
     69          1           0       21.950000   25.090000   23.490000
     70          1           0       20.920000   24.270000   22.750000
     71          8           0       23.620000   16.800000   18.130000
     72          1           0       23.680000   16.170000   18.840000
     73          1           0       24.380000   16.610000   17.580000
     74          8           0       21.360000   19.510000   25.750000
     75          1           0       21.910000   18.750000   25.920000
     76          1           0       21.680000   19.850000   24.910000
     77          8           0       17.250000   18.040000   24.090000
     78          1           0       17.080000   18.520000   24.910000
     79          1           0       16.620000   17.320000   24.100000
     80          8           0       18.640000   23.910000   24.450000
     81          1           0       18.930000   23.830000   23.540000
     82          1           0       18.780000   24.820000   24.670000
     83          8           0       24.540000   22.920000   16.900000
     84          1           0       23.930000   22.880000   17.640000
     85          1           0       24.050000   22.540000   16.170000
     86          8           0       21.260000   14.810000   22.960000
     87          1           0       20.880000   14.270000   22.270000
     88          1           0       20.670000   15.560000   23.040000
     89          8           0       17.570000   16.940000   16.130000
     90          1           0       17.810000   17.690000   15.580000
     91          1           0       17.840000   16.180000   15.630000
     92          8           0       20.490000   23.130000   15.170000
     93          1           0       20.030000   22.670000   14.460000
     94          1           0       19.790000   23.510000   15.700000
     95          8           0       13.590000   20.640000   20.110000
     96          1           0       14.320000   20.110000   19.780000
     97          1           0       13.550000   20.440000   21.040000
     98          8           0       15.260000   23.130000   19.160000
     99          1           0       14.740000   22.780000   19.880000
    100          1           0       14.770000   22.910000   18.370000
    101          8           0       21.280000   26.550000   20.030000
    102          1           0       21.050000   25.670000   20.340000
    103          1           0       22.150000   26.720000   20.400000
    104          8           0       21.660000   14.190000   19.720000
    105          1           0       22.160000   14.150000   18.910000
    106          1           0       22.220000   14.670000   20.330000
    107          8           0       16.420000   15.320000   18.060000
    108          1           0       16.370000   16.160000   17.590000
    109          1           0       17.360000   15.140000   18.140000
    110          8           0       18.190000   25.290000   21.660000
    111          1           0       18.950000   25.820000   21.890000
    112          1           0       17.540000   25.500000   22.330000
    113          8           0       15.490000   23.400000   23.550000
    114          1           0       16.390000   23.200000   23.310000
    115          1           0       15.540000   23.700000   24.460000
    116          8           0       18.770000   19.680000   13.340000
    117          1           0       18.490000   18.770000   13.370000
    118          1           0       18.800000   19.950000   14.260000
    119          8           0       14.120000   21.210000   22.690000
    120          1           0       14.550000   22.020000   22.960000
    121          1           0       14.820000   20.550000   22.710000
    122          8           0       23.770000   15.400000   20.800000
    123          1           0       23.570000   15.590000   21.720000
    124          1           0       24.700000   15.620000   20.710000
    125          8           0       23.010000   22.350000   14.980000
    126          1           0       22.900000   21.860000   14.170000
    127          1           0       22.150000   22.740000   15.140000
    128          8           0       20.870000   22.420000   26.100000
    129          1           0       20.640000   22.820000   25.270000
    130          1           0       21.430000   21.670000   25.860000
    131          8           0       24.990000   21.640000   23.170000
    132          1           0       25.800000   21.410000   23.630000
    133          1           0       25.270000   21.800000   22.270000
    134          8           0       26.910000   19.970000   20.550000
    135          1           0       26.990000   19.190000   21.100000
    136          1           0       26.120000   19.820000   20.040000
    137          8           0       21.770000   25.390000   16.540000
    138          1           0       22.020000   24.540000   16.170000
    139          1           0       20.830000   25.300000   16.740000
    140          8           0       26.130000   18.600000   22.810000
    141          1           0       26.800000   19.160000   23.200000
    142          1           0       25.330000   18.800000   23.310000
    143          8           0       23.080000   17.290000   14.310000
    144          1           0       22.810000   18.200000   14.400000
    145          1           0       22.640000   16.840000   15.040000
    146          8           0       14.170000   17.930000   21.950000
    147          1           0       14.550000   17.420000   22.670000
    148          1           0       13.410000   18.360000   22.330000
    149          8           0       13.630000   16.470000   19.270000
    150          1           0       14.550000   16.540000   19.010000
    151          1           0       13.600000   16.870000   20.140000
    152          8           0       23.440000   23.560000   24.480000
    153          1           0       24.080000   22.910000   24.200000
    154          1           0       23.360000   23.430000   25.420000
    155          8           0       17.230000   22.130000   26.430000
    156          1           0       17.300000   21.410000   25.800000
    157          1           0       17.900000   22.760000   26.150000
    158          8           0       19.280000   15.040000   14.920000
    159          1           0       20.080000   15.410000   15.300000
    160          1           0       18.920000   14.500000   15.620000
    161          8           0       15.280000   16.220000   23.690000
    162          1           0       14.530000   15.660000   23.480000
    163          1           0       16.000000   15.860000   23.170000
    164          8           0       18.940000   26.960000   18.360000
    165          1           0       19.650000   26.770000   18.970000
    166          1           0       19.150000   27.830000   18.010000
    167          8           0       17.260000   12.870000   20.490000
    168          1           0       18.020000   12.780000   21.060000
    169          1           0       17.490000   13.590000   19.900000
    170          8           0       23.000000   17.090000   25.560000
    171          1           0       23.180000   16.170000   25.340000
    172          1           0       23.770000   17.560000   25.240000
    173          8           0       17.000000   25.640000   15.440000
    174          1           0       17.610000   25.050000   15.880000
    175          1           0       16.240000   25.090000   15.250000
    176          8           0       14.410000   16.840000   15.500000
    177          1           0       14.280000   17.210000   14.630000
    178          1           0       14.930000   17.500000   15.960000
    179          8           0       14.580000   25.500000   20.720000
    180          1           0       15.110000   25.050000   20.060000
    181          1           0       14.030000   24.810000   21.090000
    182          8           0       26.750000   16.520000   20.830000
    183          1           0       26.350000   17.180000   21.380000
    184          1           0       27.320000   16.020000   21.420000
    185          8           0       23.420000   14.600000   24.490000
    186          1           0       23.340000   13.710000   24.830000
    187          1           0       22.640000   14.710000   23.940000
    188          8           0       25.270000   19.200000   15.300000
    189          1           0       25.630000   20.030000   14.990000
    190          1           0       25.960000   18.560000   15.120000
    191          8           0       18.340000   13.190000   16.620000
    192          1           0       17.680000   12.500000   16.630000
    193          1           0       18.340000   13.540000   17.510000
    194          8           0       27.400000   22.670000   18.830000
    195          1           0       26.740000   22.410000   19.470000
    196          1           0       27.970000   21.900000   18.750000
    197          8           0       19.810000   12.620000   21.470000
    198          1           0       20.080000   11.750000   21.750000
    199          1           0       20.430000   12.860000   20.780000
    200          8           0       19.230000   19.560000   27.930000
    201          1           0       19.910000   19.600000   27.250000
    202          1           0       19.420000   20.310000   28.490000
    203          8           0       16.010000   20.210000   13.900000
    204          1           0       16.280000   19.860000   13.050000
    205          1           0       15.490000   20.980000   13.670000
    206          8           0       19.850000   21.920000   12.630000
    207          1           0       20.600000   21.630000   12.100000
[...]
   Z335      23.75386  -0.01059   0.00000  -0.00785  -0.00772  23.74613
   X336      47.77228  -0.00036   0.00000  -0.00329  -0.00314  47.76914
   Y336      44.55974   0.00854   0.00000   0.00243   0.00246  44.56220
   Z336      24.03732   0.00786   0.00000   0.00959   0.00971  24.04703
   X337      48.15022   0.00554   0.00000   0.00778   0.00791  48.15813
   Y337      42.00861   0.00324   0.00000   0.00622   0.00626  42.01487
   Z337      25.30343   0.00482   0.00000   0.00185   0.00199  25.30542
   X338      35.07332   0.00744   0.00000   0.00297   0.00297  35.07629
   Y338      23.47040  -0.01560   0.00000  -0.01514  -0.01501  23.45539
   Z338      26.22940   0.00035   0.00000  -0.00258  -0.00246  26.22694
   X339      33.73161  -0.01090   0.00000  -0.01037  -0.01036  33.72125
   Y339      23.96173   0.00584   0.00000   0.00490   0.00503  23.96676
   Z339      25.13336  -0.00278   0.00000   0.00182   0.00192  25.13528
   X340      35.31898   0.00234   0.00000   0.00518   0.00518  35.32416
   Y340      24.90659   0.00445   0.00000  -0.00020  -0.00007  24.90652
   Z340      27.30654  -0.00214   0.00000  -0.00839  -0.00827  27.29827
   X341      49.58641   0.00071   0.00000   0.00066   0.00058  49.58700
   Y341      23.45150   0.00059   0.00000   0.00117   0.00124  23.45274
   Z341      37.17091  -0.01274   0.00000  -0.00946  -0.00925  37.16167
   X342      50.34230   0.00128   0.00000  -0.00139  -0.00149  50.34082
   Y342      22.86569  -0.00050   0.00000   0.00212   0.00219  22.86788
   Z342      38.70159   0.00903   0.00000   0.00551   0.00574  38.70733
   X343      48.16912  -0.00434   0.00000  -0.00360  -0.00367  48.16545
   Y343      24.45306   0.00170   0.00000  -0.00003   0.00005  24.45310
   Z343      37.70004   0.00332   0.00000   0.00247   0.00267  37.70271
   X344      21.50508   0.00943   0.00000   0.01357   0.01354  21.51862
   Y344      35.28119  -0.00463   0.00000  -0.01611  -0.01583  35.26535
   Z344      42.00861   0.00230   0.00000  -0.00324  -0.00327  42.00534
   X345      21.35391  -0.00443   0.00000  -0.00847  -0.00852  21.34538
   Y345      33.73161  -0.01047   0.00000  -0.01462  -0.01434  33.71728
   Z345      42.91568   0.00732   0.00000   0.00898   0.00896  42.92464
   X346      20.86258  -0.00293   0.00000  -0.00113  -0.00115  20.86142
   Y346      34.90324  -0.00074   0.00000  -0.00032  -0.00005  34.90319
   Z346      40.36455  -0.01436   0.00000  -0.01475  -0.01478  40.34977
   X347      43.87944  -0.01546   0.00000  -0.01285  -0.01278  43.86666
   Y347      52.40211   0.00245   0.00000   0.00394   0.00408  52.40618
   Z347      44.82430   0.00365   0.00000   0.00164   0.00171  44.82601
   X348      45.27784   0.00658   0.00000   0.00284   0.00290  45.28073
   Y348      52.28872  -0.00679   0.00000  -0.01238  -0.01225  52.27647
   Z348      45.97704   0.00114   0.00000  -0.00298  -0.00290  45.97414
   X349      44.63533   0.00443   0.00000   0.00123   0.00130  44.63663
   Y349      52.43990   0.00072   0.00000   0.00118   0.00131  52.44121
   Z349      43.18024  -0.00784   0.00000  -0.00470  -0.00463  43.17562
   X350      29.59311   0.00003   0.00000   0.00177   0.00171  29.59483
   Y350      43.50150   0.01463   0.00000   0.00498   0.00525  43.50674
   Z350      53.63043   0.00894   0.00000   0.01007   0.01007  53.64049
   X351      28.36479  -0.00952   0.00000  -0.00995  -0.01002  28.35477
   Y351      42.42435  -0.01013   0.00000  -0.01052  -0.01024  42.41411
   Z351      54.38632   0.00091   0.00000  -0.00287  -0.00287  54.38345
   X352      30.55687   0.00979   0.00000   0.00885   0.00879  30.56566
   Y352      42.40545  -0.01147   0.00000  -0.00855  -0.00829  42.39716
   Z352      52.55328  -0.00716   0.00000  -0.00209  -0.00208  52.55121
   X353      55.36898   0.00568   0.00000   0.01061   0.01061  55.37959
   Y353      35.79141  -0.01530   0.00000  -0.01189  -0.01186  35.77956
   Z353      37.75673   0.00205   0.00000   0.00322   0.00343  37.76016
   X354      56.80517   0.00791   0.00000   0.01110   0.01110  56.81627
   Y354      35.88590   0.00115   0.00000   0.00161   0.00163  35.88753
   Z354      36.66069  -0.00297   0.00000  -0.00277  -0.00255  36.65814
   X355      54.91544  -0.01104   0.00000  -0.01695  -0.01694  54.89850
   Y355      37.51106   0.00880   0.00000   0.00002   0.00005  37.51112
   Z355      38.05908  -0.00333   0.00000  -0.00925  -0.00905  38.05004
   X356      26.66404   0.00483   0.00000  -0.00117  -0.00109  26.66294
   Y356      34.12845  -0.00395   0.00000  -0.00537  -0.00520  34.12326
   Z356      24.73652  -0.00399   0.00000  -0.00934  -0.00933  24.72719
   X357      28.19471  -0.00090   0.00000   0.00080   0.00089  28.19560
   Y357      34.50640   0.00151   0.00000   0.00416   0.00432  34.51072
   Z357      23.82945   0.00412   0.00000   0.00520   0.00523  23.83468
   X358      25.36012  -0.00970   0.00000  -0.01100  -0.01091  25.34921
   Y358      34.92214   0.00234   0.00000   0.00058   0.00076  34.92290
   Z358      23.77275  -0.00620   0.00000  -0.00755  -0.00754  23.76521
   X359      29.97106   0.01185   0.00000   0.00561   0.00560  29.97665
   Y359      47.18646   0.01646   0.00000   0.00726   0.00751  47.19397
   Z359      50.15333  -0.02897   0.00000  -0.03180  -0.03181  50.12152
   X360      30.02775  -0.00856   0.00000  -0.01186  -0.01189  30.01586
   Y360      45.63689  -0.01151   0.00000   0.00201   0.00226  45.63914
   Z360      51.07930   0.01622   0.00000   0.01374   0.01374  51.09303
   X361      28.36479  -0.00808   0.00000  -0.00295  -0.00296  28.36183
   Y361      47.90456  -0.00132   0.00000  -0.00308  -0.00282  47.90174
   Z361      50.55017   0.00615   0.00000   0.00548   0.00546  50.55563
   X362      41.85743   0.00820   0.00000   0.00527   0.00521  41.86264
   Y362      20.44684  -0.00439   0.00000  -0.00133  -0.00123  20.44561
   Z362      31.84189   0.00028   0.00000   0.00283   0.00300  31.84489
   X363      40.96926  -0.00075   0.00000  -0.00013  -0.00020  40.96907
   Y363      18.87836   0.00139   0.00000   0.00227   0.00237  18.88074
   Z363      31.59622  -0.00130   0.00000  -0.00281  -0.00264  31.59358
   X364      40.57242  -0.00969   0.00000  -0.00933  -0.00939  40.56303
   Y364      21.65626   0.00430   0.00000   0.00132   0.00143  21.65769
   Z364      32.23873  -0.00026   0.00000  -0.00306  -0.00290  32.23582
   X365      38.53152  -0.00495   0.00000  -0.00207  -0.00223  38.52929
   Y365      25.03887   0.00268   0.00000   0.00174   0.00193  25.04081
   Z365      49.75649   0.00424   0.00000   0.00463   0.00477  49.76125
   X366      40.19447   0.00556   0.00000   0.00294   0.00279  40.19727
   Y366      24.86880   0.00020   0.00000   0.00127   0.00144  24.87024
   Z366      49.07619  -0.00357   0.00000  -0.00372  -0.00358  49.07261
   X367      37.88901  -0.00277   0.00000  -0.00461  -0.00478  37.88423
   Y367      23.33812  -0.00090   0.00000   0.00023   0.00042  23.33854
   Z367      49.81318  -0.00207   0.00000  -0.00404  -0.00391  49.80928
   X368      24.83100  -0.00326   0.00000  -0.00139  -0.00139  24.82961
   Y368      45.48571  -0.01602   0.00000  -0.01146  -0.01119  45.47452
   Z368      47.20536   0.00428   0.00000   0.00298   0.00294  47.20830
   X369      25.96484   0.00609   0.00000   0.00105   0.00106  25.96590
   Y369      46.80852   0.01094   0.00000   0.00577   0.00603  46.81455
   Z369      46.71403  -0.00817   0.00000  -0.01040  -0.01044  46.70359
   X370      23.20584  -0.00463   0.00000  -0.00320  -0.00320  23.20264
   Y370      46.27939   0.00248   0.00000  -0.00006   0.00023  46.27962
   Z370      47.29985   0.00183   0.00000   0.00361   0.00356  47.30340
   X371      42.85899   0.00654   0.00000   0.00637   0.00629  42.86528
   Y371      42.63222  -0.01238   0.00000  -0.00963  -0.00945  42.62277
   Z371      55.16111  -0.00006   0.00000   0.00027   0.00037  55.16147
   X372      42.04641  -0.00617   0.00000  -0.00686  -0.00693  42.03948
   Y372      44.18180   0.00611   0.00000   0.00006   0.00025  44.18205
   Z372      55.63354  -0.00541   0.00000  -0.01065  -0.01056  55.62297
   X373      43.35032  -0.00117   0.00000  -0.00093  -0.00099  43.34933
   Y373      42.89678   0.00777   0.00000   0.01190   0.01207  42.90885
   Z373      53.42256   0.00110   0.00000   0.00173   0.00183  53.42438
   X374      33.54264  -0.00578   0.00000  -0.00357  -0.00338  33.53925
   Y374      53.91389   0.01563   0.00000   0.00865   0.00880  53.92268
   Z374      29.25296   0.00561   0.00000   0.01181   0.01179  29.26475
   X375      32.93793  -0.00301   0.00000  -0.00170  -0.00153  32.93640
   Y375      52.21313  -0.01529   0.00000  -0.01147  -0.01132  52.20181
   Z375      29.38524  -0.00192   0.00000  -0.00496  -0.00497  29.38027
   X376      35.33788   0.00938   0.00000   0.00576   0.00594  35.34382
   Y376      53.74381  -0.00511   0.00000  -0.00665  -0.00652  53.73729
   Z376      29.19627  -0.00431   0.00000  -0.00799  -0.00798  29.18828
   X377      27.00419   0.00216   0.00000  -0.00225  -0.00211  27.00207
   Y377      43.57708  -0.00846   0.00000  -0.00753  -0.00736  43.56973
   Z377      25.37902   0.01048   0.00000   0.00823   0.00821  25.38723
   X378      26.92860  -0.00244   0.00000  -0.00359  -0.00344  26.92515
   Y378      42.74561   0.00125   0.00000   0.00399   0.00416  42.74977
   Z378      23.77275  -0.00692   0.00000  -0.00564  -0.00566  23.76709
   X379      26.32389   0.00033   0.00000   0.00542   0.00557  26.32946
   Y379      45.22115   0.00860   0.00000   0.00576   0.00594  45.22709
   Z379      25.05777  -0.00436   0.00000  -0.00406  -0.00409  25.05368
   X380      27.38213   0.01032   0.00000   0.00240   0.00231  27.38444
   Y380      37.90791   0.01152   0.00000   0.01573   0.01601  37.92392
   Z380      52.78005   0.00737   0.00000   0.00222   0.00223  52.78228
   X381      26.58845  -0.01072   0.00000  -0.01126  -0.01134  26.57710
   Y381      38.19137   0.00517   0.00000   0.00741   0.00769  38.19905
   Z381      51.17378  -0.01548   0.00000  -0.01290  -0.01290  51.16088
   X382      26.28609  -0.00175   0.00000   0.00493   0.00483  26.29092
   Y382      36.73628  -0.00737   0.00000  -0.00617  -0.00588  36.73040
   Z382      53.61153   0.00251   0.00000  -0.00007  -0.00007  53.61146
   X383      30.68915  -0.01589   0.00000  -0.01339  -0.01353  30.67562
   Y383      30.23562   0.01401   0.00000   0.00923   0.00948  30.24510
   Z383      52.79895   0.00672   0.00000   0.00256   0.00262  52.80157
   X384      29.47973  -0.00256   0.00000  -0.00219  -0.00234  29.47739
   Y384      28.89391  -0.00725   0.00000  -0.00833  -0.00807  28.88585
   Z384      52.79895  -0.00142   0.00000  -0.00198  -0.00192  52.79702
   X385      32.20093   0.01502   0.00000   0.00939   0.00924  32.21018
   Y385      29.51752  -0.00848   0.00000  -0.00492  -0.00468  29.51285
   Z385      52.11865  -0.00059   0.00000   0.00816   0.00824  52.12688
         Item               Value     Threshold  Converged?
 Maximum Force            0.039838     0.000450     NO 
 RMS     Force            0.010254     0.000300     NO 
 Maximum Displacement     0.034225     0.001800     NO 
 RMS     Displacement     0.008841     0.001200     NO 
 Predicted change in Energy=-7.022805D-02
 GradGradGradGradGradGradGradGradGradGradGradGradGradGradGradGradGradGrad

 Leave Link  103 at Wed May  9 13:34:09 2018, MaxMem= 14763950080 cpu:      2968.8
 (Enter /cm/shared/gaussian/g09.e01/intel64-sandybridge/g09/l9999.exe)
 1\1\GINC-POPLE01\Force\RPBE1PBE\CC-pVDZ\Br1H256O128(1-)\M.PELUSO\09-Ma
 y-2018\0\\#p PBE1PBE/cc-pvDZ force Counterpoise=2 noSymm\\forces on ch
 loride comput - NWATER: 128\\-1,1\Br,20.,20.,20.\O,22.6,20.85,18.47\H,
 21.84,20.49,18.92\H,22.58,21.79,18.66\O,19.65,17.99,22.42\H,19.57,18.5
 7,21.66\H,18.84,18.15,22.92\O,18.99,17.18,18.37\H,18.36,17.49,17.73\H,
 19.51,17.95,18.59\O,17.11,21.07,17.84\H,16.79,21.53,18.62\H,17.93,20.6
 6,18.12\O,17.05,20.95,22.56\H,17.44,21.07,21.69\H,17.66,20.37,23.02\O,
 21.09,22.44,22.8\H,21.14,21.5,22.65\H,21.94,22.66,23.18\O,19.92,19.49,
 15.81\H,19.89,19.72,16.75\H,20.85,19.4,15.62\O,20.47,23.6,20.56\H,19.6
 4,23.45,20.11\H,20.46,22.97,21.29\O,22.68,18.06,21.98\H,21.76,18.14,22
 .26\H,22.63,17.97,21.03\O,15.79,18.91,19.86\H,15.57,18.64,20.75\H,16.7
 3,18.74,19.79\O,22.73,23.71,18.89\H,21.89,23.44,19.24\H,22.56,24.58,18
 .52\O,22.71,20.31,23.37\H,22.86,19.58,22.77\H,23.4,20.94,23.16\O,17.93
 ,23.56,19.49\H,17.97,23.95,20.36\H,16.99,23.55,19.28\O,21.43,16.54,16.
 7\H,20.55,16.53,17.07\H,22.01,16.56,17.45\O,18.91,24.44,16.99\H,18.71,
 23.97,17.8\H,18.79,25.36,17.2\O,25.23,19.96,18.23\H,24.93,19.3,17.61\H
 ,24.45,20.47,18.44\O,18.87,14.53,19.08\H,19.21,15.42,18.94\H,19.63,14.
 03,19.38\O,22.57,19.66,15.64\H,23.49,19.39,15.75\H,22.54,20.56,15.98\O
 ,15.43,19.19,16.74\H,15.88,19.53,17.52\H,15.76,19.74,16.02\O,24.71,22.
 72,20.65\H,24.,22.88,20.03\H,24.96,23.59,20.97\O,17.75,22.07,15.23\H,1
 7.44,22.14,16.13\H,17.32,21.28,14.89\O,17.88,15.62,22.93\H,18.42,16.33
 ,23.29\H,17.92,15.74,21.98\O,21.03,25.09,23.23\H,21.95,25.09,23.49\H,2
 0.92,24.27,22.75\O,23.62,16.8,18.13\H,23.68,16.17,18.84\H,24.38,16.61,
 17.58\O,21.36,19.51,25.75\H,21.91,18.75,25.92\H,21.68,19.85,24.91\O,17
 .25,18.04,24.09\H,17.08,18.52,24.91\H,16.62,17.32,24.1\O,18.64,23.91,2
 4.45\H,18.93,23.83,23.54\H,18.78,24.82,24.67\O,24.54,22.92,16.9\H,23.9
 3,22.88,17.64\H,24.05,22.54,16.17\O,21.26,14.81,22.96\H,20.88,14.27,22
 .27\H,20.67,15.56,23.04\O,17.57,16.94,16.13\H,17.81,17.69,15.58\H,17.8
 4,16.18,15.63\O,20.49,23.13,15.17\H,20.03,22.67,14.46\H,19.79,23.51,15
 .7\O,13.59,20.64,20.11\H,14.32,20.11,19.78\H,13.55,20.44,21.04\O,15.26
 ,23.13,19.16\H,14.74,22.78,19.88\H,14.77,22.91,18.37\O,21.28,26.55,20.
 03\H,21.05,25.67,20.34\H,22.15,26.72,20.4\O,21.66,14.19,19.72\H,22.16,
 14.15,18.91\H,22.22,14.67,20.33\O,16.42,15.32,18.06\H,16.37,16.16,17.5
 9\H,17.36,15.14,18.14\O,18.19,25.29,21.66\H,18.95,25.82,21.89\H,17.54,
 25.5,22.33\O,15.49,23.4,23.55\H,16.39,23.2,23.31\H,15.54,23.7,24.46\O,
 18.77,19.68,13.34\H,18.49,18.77,13.37\H,18.8,19.95,14.26\O,14.12,21.21
 ,22.69\H,14.55,22.02,22.96\H,14.82,20.55,22.71\O,23.77,15.4,20.8\H,23.
 57,15.59,21.72\H,24.7,15.62,20.71\O,23.01,22.35,14.98\H,22.9,21.86,14.
 17\H,22.15,22.74,15.14\O,20.87,22.42,26.1\H,20.64,22.82,25.27\H,21.43,
 21.67,25.86\O,24.99,21.64,23.17\H,25.8,21.41,23.63\H,25.27,21.8,22.27\
 O,26.91,19.97,20.55\H,26.99,19.19,21.1\H,26.12,19.82,20.04\O,21.77,25.
 39,16.54\H,22.02,24.54,16.17\H,20.83,25.3,16.74\O,26.13,18.6,22.81\H,2
 6.8,19.16,23.2\H,25.33,18.8,23.31\O,23.08,17.29,14.31\H,22.81,18.2,14.
 4\H,22.64,16.84,15.04\O,14.17,17.93,21.95\H,14.55,17.42,22.67\H,13.41,
 18.36,22.33\O,13.63,16.47,19.27\H,14.55,16.54,19.01\H,13.6,16.87,20.14
 \O,23.44,23.56,24.48\H,24.08,22.91,24.2\H,23.36,23.43,25.42\O,17.23,22
 .13,26.43\H,17.3,21.41,25.8\H,17.9,22.76,26.15\O,19.28,15.04,14.92\H,2
 0.08,15.41,15.3\H,18.92,14.5,15.62\O,15.28,16.22,23.69\H,14.53,15.66,2
 3.48\H,16.,15.86,23.17\O,18.94,26.96,18.36\H,19.65,26.77,18.97\H,19.15
 ,27.83,18.01\O,17.26,12.87,20.49\H,18.02,12.78,21.06\H,17.49,13.59,19.
 9\O,23.,17.09,25.56\H,23.18,16.17,25.34\H,23.77,17.56,25.24\O,17.,25.6
 4,15.44\H,17.61,25.05,15.88\H,16.24,25.09,15.25\O,14.41,16.84,15.5\H,1
 4.28,17.21,14.63\H,14.93,17.5,15.96\O,14.58,25.5,20.72\H,15.11,25.05,2
 0.06\H,14.03,24.81,21.09\O,26.75,16.52,20.83\H,26.35,17.18,21.38\H,27.
 32,16.02,21.42\O,23.42,14.6,24.49\H,23.34,13.71,24.83\H,22.64,14.71,23
 .94\O,25.27,19.2,15.3\H,25.63,20.03,14.99\H,25.96,18.56,15.12\O,18.34,
 13.19,16.62\H,17.68,12.5,16.63\H,18.34,13.54,17.51\O,27.4,22.67,18.83\
 H,26.74,22.41,19.47\H,27.97,21.9,18.75\O,19.81,12.62,21.47\H,20.08,11.
 75,21.75\H,20.43,12.86,20.78\O,19.23,19.56,27.93\H,19.91,19.6,27.25\H,
 19.42,20.31,28.49\O,16.01,20.21,13.9\H,16.28,19.86,13.05\H,15.49,20.98
 ,13.67\O,19.85,21.92,12.63\H,20.6,21.63,12.1\H,19.35,21.12,12.79\O,17.
 46,13.3,24.28\H,16.82,13.7,24.87\H,17.61,13.97,23.61\O,26.26,21.79,15.
 17\H,25.68,22.26,15.77\H,26.92,21.39,15.74\O,17.55,23.72,12.93\H,18.,2
 3.18,12.28\H,17.6,23.22,13.74\O,24.77,19.52,25.73\H,25.54,18.96,25.87\
 H,24.3,19.49,26.56\O,12.15,19.07,17.86\H,12.29,18.13,18.04\H,12.64,19.
 51,18.55\O,16.82,19.,26.75\H,17.65,19.15,27.21\H,16.22,19.66,27.11\O,1
 8.69,15.41,26.95\H,18.39,15.96,26.22\H,19.19,14.71,26.53\O,24.9,25.23,
 15.36\H,24.5,24.63,15.99\H,25.81,25.32,15.65\O,25.51,25.16,21.76\H,24.
 75,25.72,21.67\H,26.19,25.59,21.24\O,13.75,23.12,16.37\H,13.54,22.21,1
 6.58\H,13.56,23.21,15.44\O,25.67,15.,23.26\H,24.87,14.67,23.67\H,25.62
 ,15.95,23.35\O,19.96,25.74,13.64\H,19.03,25.58,13.44\H,20.27,24.91,14.
 01\O,14.61,13.49,19.05\H,15.13,12.92,19.61\H,15.26,13.95,18.51\O,25.72
 ,16.89,14.36\H,24.82,17.19,14.45\H,25.82,16.67,13.43\O,24.61,22.32,26.
 91\H,25.47,22.71,26.84\H,24.62,21.59,26.28\O,20.12,27.01,25.29\H,20.22
 ,27.87,24.88\H,20.57,26.4,24.7\O,25.73,15.47,16.76\H,25.88,15.98,15.97
 \H,26.43,15.74,17.36\O,17.,26.5,23.58\H,16.09,26.2,23.52\H,16.95,27.31
 ,24.08\O,23.42,13.18,17.47\H,23.36,12.33,17.05\H,24.33,13.46,17.32\O,2
 1.08,24.54,27.57\H,21.05,23.73,27.05\H,20.25,24.97,27.37\O,12.95,19.98
 ,15.13\H,13.,19.54,15.98\H,13.3,19.34,14.51\O,27.73,16.48,18.29\H,28.3
 3,17.22,18.44\H,27.27,16.37,19.13\O,19.52,29.12,21.04\H,20.42,29.38,21
 .21\H,19.52,28.17,21.13\O,25.15,25.94,24.81\H,24.81,25.32,24.16\H,24.7
 ,25.7,25.62\O,20.65,18.8,11.08\H,20.44,18.32,11.88\H,19.87,19.33,10.9\
 O,13.81,14.42,22.25\H,14.09,14.28,21.35\H,12.87,14.6,22.18\O,17.14,16.
 83,12.77\H,16.69,17.14,11.99\H,17.61,16.04,12.48\O,13.1,20.97,25.35\H,
 13.56,21.78,25.13\H,12.92,20.56,24.51\O,23.27,27.93,16.41\H,22.75,27.1
 3,16.48\H,22.78,28.49,15.81\O,12.64,23.74,21.99\H,11.69,23.83,21.92\H,
 12.84,23.91,22.91\O,15.76,14.6,14.32\H,15.26,14.97,15.05\H,16.1,15.36,
 13.85\O,11.15,21.17,22.83\H,11.18,20.23,22.64\H,12.05,21.46,22.69\O,23
 .84,27.56,20.82\H,24.72,27.61,20.45\H,23.35,28.23,20.34\O,12.48,15.33,
 17.13\H,12.96,15.58,17.93\H,13.06,15.59,16.42\O,15.66,28.12,20.63\H,15
 .24,27.3,20.4\H,16.59,27.91,20.68\O,22.84,26.67,13.96\H,22.14,26.04,14
 .14\H,23.57,26.37,14.5\O,27.94,20.36,23.57\H,28.23,21.14,24.04\H,28.35
 ,20.44,22.71\O,27.54,24.05,16.26\H,27.53,23.19,15.85\H,27.3,23.88,17.1
 7\O,22.28,16.15,28.6\H,22.06,16.47,27.73\H,22.85,15.4,28.44\O,14.05,26
 .13,23.38\H,14.27,26.25,22.46\H,13.5,26.88,23.59\O,23.39,19.87,28.16\H
 ,23.53,20.81,28.28\H,22.63,19.66,28.71\O,13.98,27.31,18.01\H,14.86,26.
 94,18.05\H,14.05,28.03,17.38\O,25.19,22.64,12.57\H,25.28,23.58,12.72\H
 ,25.48,22.23,13.39\O,18.56,12.42,13.88\H,17.85,12.68,13.3\H,18.69,13.1
 8,14.45\O,26.24,12.41,19.67\H,26.64,12.1,20.48\H,25.49,12.94,19.95\O,1
 1.38,18.67,22.23\H,11.3,17.85,22.71\H,11.04,18.47,21.36\O,23.22,27.73,
 23.72\H,23.96,27.67,24.33\H,23.62,27.75,22.85\O,15.66,23.02,28.38\H,15
 .01,22.45,28.78\H,16.17,22.44,27.81\O,29.3,18.94,19.98\H,30.06,18.99,1
 9.4\H,29.06,19.85,20.14\O,14.11,18.06,13.09\H,14.92,18.26,12.61\H,13.4
 2,18.48,12.58\O,15.86,24.97,26.54\H,15.89,24.15,27.03\H,15.01,25.35,26
 .75\O,22.15,10.82,16.85\H,21.68,9.99,16.72\H,21.47,11.46,17.06\O,20.39
 ,13.25,26.33\H,21.27,13.16,25.97\H,20.05,12.35,26.36\O,13.14,24.07,24.
 98\H,13.74,24.77,24.72\H,12.28,24.49,25.03\O,22.68,22.56,29.19\H,22.25
 ,23.38,29.44\H,22.94,22.7,28.27\O,17.75,28.53,15.48\H,17.43,27.63,15.5
 5\H,18.7,28.44,15.45\O,14.29,23.06,13.43\H,14.25,22.62,12.58\H,13.93,2
 3.93,13.26\O,14.49,20.06,27.93\H,14.07,20.21,27.08\H,13.91,19.44,28.37
 \O,16.24,16.,27.94\H,15.6,15.29,27.94\H,17.04,15.62,27.58\\Version=ES6
 4L-G09RevE.01\HF=-9773.4013589\RMSD=1.700e-09\RMSF=1.025e-02\Dipole=6.
 8675859,-3.8318728,3.041806\Quadrupole=492.1877816,-514.9099194,22.722
 1378,-1335.7243092,-943.4802633,-1471.4383203\PG=C01 [X(Br1H256O128)]\
 \@


 NATURE REVEALS EVERY SECRET ONCE.
                    - RALPH WALDO EMERSON
 Job cpu time:       6 days 15 hours 51 minutes 29.9 seconds.
 File lengths (MBytes):  RWF=   7285 Int=      0 D2E=      0 Chk=   2411 Scr=      1
 Normal termination of Gaussian 09 at Wed May  9 13:34:37 2018.
