 Entering Gaussian System, Link 0=/cm/shared/gaussian/g09.e01/intel64-sandybridge/g09/g09
 Initial command:
 /cm/shared/gaussian/g09.e01/intel64-sandybridge/g09/l1.exe "/local/scratch/m.peluso/128_wat/Gau-21336.inp" -scrdir="/local/scratch/m.peluso/128_wat/"
 Entering Link 1 = /cm/shared/gaussian/g09.e01/intel64-sandybridge/g09/l1.exe PID=     21337.
  
 Copyright (c) 1988,1990,1992,1993,1995,1998,2003,2009,2015,
            Gaussian, Inc.  All Rights Reserved.
  
 This is part of the Gaussian(R) 09 program.  It is based on
 the Gaussian(R) 03 system (copyright 2003, Gaussian, Inc.),
 the Gaussian(R) 98 system (copyright 1998, Gaussian, Inc.),
 the Gaussian(R) 94 system (copyright 1995, Gaussian, Inc.),
 the Gaussian 92(TM) system (copyright 1992, Gaussian, Inc.),
 the Gaussian 90(TM) system (copyright 1990, Gaussian, Inc.),
 the Gaussian 88(TM) system (copyright 1988, Gaussian, Inc.),
 the Gaussian 86(TM) system (copyright 1986, Carnegie Mellon
 University), and the Gaussian 82(TM) system (copyright 1983,
 Carnegie Mellon University). Gaussian is a federally registered
 trademark of Gaussian, Inc.
  
 This software contains proprietary and confidential information,
 including trade secrets, belonging to Gaussian, Inc.
  
 This software is provided under written license and may be
 used, copied, transmitted, or stored only in accord with that
 written license.
  
 The following legend is applicable only to US Government
 contracts under FAR:
  
                    RESTRICTED RIGHTS LEGEND
  
 Use, reproduction and disclosure by the US Government is
 subject to restrictions as set forth in subparagraphs (a)
 and (c) of the Commercial Computer Software - Restricted
 Rights clause in FAR 52.227-19.
  
 Gaussian, Inc.
 340 Quinnipiac St., Bldg. 40, Wallingford CT 06492
  
  
 ---------------------------------------------------------------
 Warning -- This program may not be used in any manner that
 competes with the business of Gaussian, Inc. or will provide
 assistance to any competitor of Gaussian, Inc.  The licensee
 of this program is prohibited from giving any competitor of
 Gaussian, Inc. access to this program.  By using this program,
 the user acknowledges that Gaussian, Inc. is engaged in the
 business of creating and licensing software in the field of
 computational chemistry and represents and warrants to the
 licensee that it is not a competitor of Gaussian, Inc. and that
 it will not use this program in any manner prohibited above.
 ---------------------------------------------------------------
  

 Cite this work as:
 Gaussian 09, Revision E.01,
 M. J. Frisch, G. W. Trucks, H. B. Schlegel, G. E. Scuseria, 
 M. A. Robb, J. R. Cheeseman, G. Scalmani, V. Barone, B. Mennucci, 
 G. A. Petersson, H. Nakatsuji, M. Caricato, X. Li, H. P. Hratchian, 
 A. F. Izmaylov, J. Bloino, G. Zheng, J. L. Sonnenberg, M. Hada, 
 M. Ehara, K. Toyota, R. Fukuda, J. Hasegawa, M. Ishida, T. Nakajima, 
 Y. Honda, O. Kitao, H. Nakai, T. Vreven, J. A. Montgomery, Jr., 
 J. E. Peralta, F. Ogliaro, M. Bearpark, J. J. Heyd, E. Brothers, 
 K. N. Kudin, V. N. Staroverov, T. Keith, R. Kobayashi, J. Normand, 
 K. Raghavachari, A. Rendell, J. C. Burant, S. S. Iyengar, J. Tomasi, 
 M. Cossi, N. Rega, J. M. Millam, M. Klene, J. E. Knox, J. B. Cross, 
 V. Bakken, C. Adamo, J. Jaramillo, R. Gomperts, R. E. Stratmann, 
 O. Yazyev, A. J. Austin, R. Cammi, C. Pomelli, J. W. Ochterski, 
 R. L. Martin, K. Morokuma, V. G. Zakrzewski, G. A. Voth, 
 P. Salvador, J. J. Dannenberg, S. Dapprich, A. D. Daniels, 
 O. Farkas, J. B. Foresman, J. V. Ortiz, J. Cioslowski, 
 and D. J. Fox, Gaussian, Inc., Wallingford CT, 2013.
 
 ******************************************
 Gaussian 09:  ES64L-G09RevE.01 30-Nov-2015
                17-May-2018 
 ******************************************
 %Mem=110GB
 %NProcShared=64
 Will use up to   64 processors via shared memory.
 %chk=snap45.chk
 ----------------------------------------------
 #p PBE1PBE/cc-pvDZ force Counterpoise=2 noSymm
 ----------------------------------------------
 1/10=7,30=1,38=1,62=2/1,3;
 2/12=2,15=1,17=6,18=5,40=1/2;
 1/10=7,30=1,38=1,53=2,62=2,63=101/22;
 3/5=16,11=2,16=1,25=1,30=1,71=1,74=-13/1,2,3;
 4//1;
 5/5=2,38=5/2;
 6/7=2,8=2,9=2,10=2,28=1/1;
 7/7=1,29=1,30=1,33=-1/1,2,3,16;
 1/10=7,30=1,53=2,62=2,63=101/22;
 3/5=7,6=11,11=2,16=1,25=1,30=1,71=1,74=-13,82=7/1,2,3;
 4//1;
 5/5=2,38=5/2;
 6/7=2,8=2,9=2,10=2,28=1/1;
 7/7=1,29=1,30=1,33=-1/1,2,3,16;
 1/10=7,30=1,53=2,62=2,63=101/22(-5);
 7/9=1,29=1,44=-1/16;
 1/10=7,30=1,62=2/3;
 99//99;
 Leave Link    1 at Thu May 17 17:45:37 2018, MaxMem= 14763950080 cpu:         8.6
 (Enter /cm/shared/gaussian/g09.e01/intel64-sandybridge/g09/l101.exe)
 ---------------------------------------
 forces on chloride comput - NWATER: 128
 ---------------------------------------
 Symbolic Z-matrix:
 Charge = -1 Multiplicity = 1 in supermolecule
 Charge = -1 Multiplicity = 1 in fragment      1.
 Charge =  0 Multiplicity = 1 in fragment      2.
 Br(Fragment=1)        20.       20.       20. 
 O(Fragment=2)         20.74     17.15     18.99 
 H(Fragment=2)         20.01     16.69     19.42 
 H(Fragment=2)         20.64     18.06     19.27 
 O(Fragment=2)         18.34     18.85     22.38 
 H(Fragment=2)         18.94     19.11     21.68 
 H(Fragment=2)         18.03     19.68     22.75 
 O(Fragment=2)         19.42     23.06     19.95 
 H(Fragment=2)         18.55     23.27     20.28 
 H(Fragment=2)         19.42     22.1      19.88 
 O(Fragment=2)         17.48     19.04     18.28 
 H(Fragment=2)         18.31     19.3      18.68 
 H(Fragment=2)         16.82     19.31     18.92 
 O(Fragment=2)         22.16     21.93     21.36 
 H(Fragment=2)         21.49     21.28     21.14 
 H(Fragment=2)         22.88     21.42     21.74 
 O(Fragment=2)         20.33     20.44     16.79 
 H(Fragment=2)         19.9      19.74     16.29 
 H(Fragment=2)         20.17     20.22     17.7 
 O(Fragment=2)         23.49     19.5      20.33 
 H(Fragment=2)         23.23     19.38     21.24 
 H(Fragment=2)         22.74     19.19     19.83 
 O(Fragment=2)         21.91     22.86     18.21 
 H(Fragment=2)         21.58     22.54     19.05 
 H(Fragment=2)         21.21     22.65     17.59 
 O(Fragment=2)         23.21     20.16     17.44 
 H(Fragment=2)         22.54     19.5      17.26 
 H(Fragment=2)         22.77     20.81     17.99 
 O(Fragment=2)         18.55     16.24     20.43 
 H(Fragment=2)         18.71     15.56     21.09 
 H(Fragment=2)         18.29     17.01     20.94 
 O(Fragment=2)         20.37     23.08     23.33 
 H(Fragment=2)         20.53     22.8      22.42 
 H(Fragment=2)         21.2      23.47     23.61 
 O(Fragment=2)         19.48     23.46     16.93 
 H(Fragment=2)         18.69     23.       16.65 
 H(Fragment=2)         19.61     23.18     17.83 
 O(Fragment=2)         17.32     21.83     16.47 
 H(Fragment=2)         16.67     21.26     16.05 
 H(Fragment=2)         17.65     21.31     17.2 
 O(Fragment=2)         15.65     19.46     20.61 
 H(Fragment=2)         14.95     19.35     21.25 
 H(Fragment=2)         16.23     20.11     20.99 
 O(Fragment=2)         18.75     18.19     16.01 
 H(Fragment=2)         18.67     17.71     16.83 
 H(Fragment=2)         17.86     18.47     15.81 
 O(Fragment=2)         16.52     22.37     19.02 
 H(Fragment=2)         15.81     22.2      19.64 
 H(Fragment=2)         16.08     22.45     18.17 
 O(Fragment=2)         20.99     25.15     20.66 
 H(Fragment=2)         21.42     25.17     19.8 
 H(Fragment=2)         20.59     24.28     20.71 
 O(Fragment=2)         21.66     16.52     16.43 
 H(Fragment=2)         20.95     15.95     16.12 
 H(Fragment=2)         21.37     16.81     17.3 
 O(Fragment=2)         21.21     20.61     24.51 
 H(Fragment=2)         22.       20.62     23.98 
 H(Fragment=2)         20.7      21.35     24.2 
 O(Fragment=2)         17.21     20.89     23.74 
 H(Fragment=2)         16.48     20.47     24.2 
 H(Fragment=2)         17.77     21.22     24.44 
 O(Fragment=2)         23.61     15.85     18.83 
 H(Fragment=2)         24.48     16.14     19.11 
 H(Fragment=2)         23.13     16.66     18.67 
 O(Fragment=2)         16.15     17.43     23.33 
 H(Fragment=2)         16.64     17.95     22.7 
 H(Fragment=2)         16.17     17.94     24.14 
 O(Fragment=2)         20.89     21.99     14.6 
 H(Fragment=2)         20.16     22.6      14.43 
 H(Fragment=2)         20.56     21.42     15.29 
 O(Fragment=2)         23.75     18.39     22.97 
 H(Fragment=2)         24.55     18.17     23.44 
 H(Fragment=2)         23.07     17.85     23.38 
 O(Fragment=2)         21.59     17.63     24.82 
 H(Fragment=2)         21.31     18.55     24.79 
 H(Fragment=2)         20.86     17.15     24.43 
 O(Fragment=2)         22.98     15.41     21.76 
 H(Fragment=2)         22.21     15.23     22.3 
 H(Fragment=2)         22.62     15.6      20.89 
 O(Fragment=2)         17.73     23.63     23.75 
 H(Fragment=2)         17.37     22.77     23.55 
 H(Fragment=2)         18.62     23.46     24.05 
 O(Fragment=2)         26.02     19.39     18.8 
 H(Fragment=2)         25.16     19.51     19.2 
 H(Fragment=2)         26.04     20.04     18.09 
 O(Fragment=2)         24.74     22.78     18.11 
 H(Fragment=2)         23.99     23.19     18.54 
 H(Fragment=2)         24.35     22.29     17.38 
 O(Fragment=2)         24.23     20.95     23.5 
 H(Fragment=2)         24.12     20.01     23.41 
 H(Fragment=2)         25.07     21.06     23.95 
 O(Fragment=2)         22.03     25.65     18.1 
 H(Fragment=2)         22.       24.72     17.89 
 H(Fragment=2)         22.95     25.88     18.05 
 O(Fragment=2)         19.14     21.2      26.05 
 H(Fragment=2)         19.85     20.84     25.52 
 H(Fragment=2)         19.31     20.88     26.94 
 O(Fragment=2)         17.37     14.49     17.93 
 H(Fragment=2)         17.84     14.97     18.62 
 H(Fragment=2)         17.72     13.6      17.97 
 O(Fragment=2)         17.49     25.02     20.74 
 H(Fragment=2)         18.23     25.62     20.75 
 H(Fragment=2)         16.96     25.3      20. 
 O(Fragment=2)         24.73     23.21     22.15 
 H(Fragment=2)         24.56     22.48     22.75 
 H(Fragment=2)         25.33     22.85     21.5 
 O(Fragment=2)         15.34     23.72     22.03 
 H(Fragment=2)         16.14     24.12     21.69 
 H(Fragment=2)         14.94     24.4      22.57 
 O(Fragment=2)         24.26     19.84     14.66 
 H(Fragment=2)         23.8      20.06     15.47 
 H(Fragment=2)         25.08     20.34     14.72 
 O(Fragment=2)         14.27     20.6      17.22 
 H(Fragment=2)         13.52     20.13     16.86 
 H(Fragment=2)         14.37     20.26     18.1 
 O(Fragment=2)         18.49     18.54     25.74 
 H(Fragment=2)         18.64     19.48     25.82 
 H(Fragment=2)         18.9      18.16     26.51 
 O(Fragment=2)         16.15     19.1      15.47 
 H(Fragment=2)         15.64     18.35     15.75 
 H(Fragment=2)         15.61     19.86     15.71 
 O(Fragment=2)         22.91     24.68     23.45 
 H(Fragment=2)         23.39     24.2      22.78 
 H(Fragment=2)         23.18     25.59     23.33 
 O(Fragment=2)         20.12     14.63     22.9 
 H(Fragment=2)         19.37     14.57     23.49 
 H(Fragment=2)         20.43     13.73     22.82 
 O(Fragment=2)         14.01     22.07     20.44 
 H(Fragment=2)         14.46     22.64     21.06 
 H(Fragment=2)         13.9      21.24     20.91 
 O(Fragment=2)         25.88     16.93     20.01 
 H(Fragment=2)         25.84     17.81     19.64 
 H(Fragment=2)         26.45     17.02     20.77 
 O(Fragment=2)         23.71     23.29     15.12 
 H(Fragment=2)         22.82     22.97     15.28 
 H(Fragment=2)         23.6      24.04     14.54 
 O(Fragment=2)         22.42     13.4      18.96 
 H(Fragment=2)         22.63     14.33     18.93 
 H(Fragment=2)         21.5      13.35     18.72 
 O(Fragment=2)         18.53     25.03     14.72 
 H(Fragment=2)         18.81     24.63     15.54 
 H(Fragment=2)         17.58     25.16     14.82 
 O(Fragment=2)         18.84     26.03     23.63 
 H(Fragment=2)         19.2      25.89     22.76 
 H(Fragment=2)         18.3      25.25     23.8 
 O(Fragment=2)         19.06     27.27     20.49 
 H(Fragment=2)         19.72     26.63     20.22 
 H(Fragment=2)         18.52     27.39     19.71 
 O(Fragment=2)         26.5      22.54     20.15 
 H(Fragment=2)         27.3      22.01     20.17 
 H(Fragment=2)         26.15     22.41     19.27 
 O(Fragment=2)         19.79     17.63     13.4 
 H(Fragment=2)         20.05     16.79     13.79 
 H(Fragment=2)         18.93     17.8      13.78 
 O(Fragment=2)         15.28     14.69     22.65 
 H(Fragment=2)         16.05     14.13     22.71 
 H(Fragment=2)         15.61     15.58     22.72 
 O(Fragment=2)         22.28     23.9      26.11 
 H(Fragment=2)         21.94     23.96     25.21 
 H(Fragment=2)         23.22     24.02     26.03 
 O(Fragment=2)         23.59     17.22     13.94 
 H(Fragment=2)         23.98     18.04     14.24 
 H(Fragment=2)         22.89     17.04     14.57 
 O(Fragment=2)         18.58     27.09     17.79 
 H(Fragment=2)         17.94     27.49     17.2 
 H(Fragment=2)         18.69     26.2      17.45 
 O(Fragment=2)         13.42     17.19     21.78 
 H(Fragment=2)         14.26     16.83     22.07 
 H(Fragment=2)         12.81     16.98     22.49 
 O(Fragment=2)         23.09     26.75     21.87 
 H(Fragment=2)         22.28     26.26     21.72 
 H(Fragment=2)         22.98     27.55     21.36 
 O(Fragment=2)         14.01     23.29     17.73 
 H(Fragment=2)         13.74     22.39     17.53 
 H(Fragment=2)         14.07     23.31     18.69 
 O(Fragment=2)         25.07     25.35     20.24 
 H(Fragment=2)         25.12     24.61     20.85 
 H(Fragment=2)         24.44     25.95     20.63 
 O(Fragment=2)         13.49     20.32     22.41 
 H(Fragment=2)         12.63     20.74     22.35 
 H(Fragment=2)         13.57     20.06     23.33 
 O(Fragment=2)         18.28     14.68     14.85 
 H(Fragment=2)         18.17     14.76     15.8 
 H(Fragment=2)         17.39     14.7      14.5 
 O(Fragment=2)         23.1      15.72     25.94 
 H(Fragment=2)         22.55     16.31     25.42 
 H(Fragment=2)         23.16     16.14     26.8 
 O(Fragment=2)         22.54     21.17     12.75 
 H(Fragment=2)         22.06     21.62     13.44 
 H(Fragment=2)         23.2      20.65     13.21 
 O(Fragment=2)         16.23     23.04     26. 
 H(Fragment=2)         15.32     23.04     25.7 
 H(Fragment=2)         16.73     23.41     25.27 
 O(Fragment=2)         15.41     25.51     18.75 
 H(Fragment=2)         15.31     26.41     18.42 
 H(Fragment=2)         15.27     24.96     17.98 
 O(Fragment=2)         14.82     20.34     24.91 
 H(Fragment=2)         14.53     21.19     24.57 
 H(Fragment=2)         14.82     20.45     25.86 
 O(Fragment=2)         22.83     14.22     15.15 
 H(Fragment=2)         22.73     15.03     15.65 
 H(Fragment=2)         22.22     14.31     14.42 
 O(Fragment=2)         25.32     14.       20.18 
 H(Fragment=2)         24.53     14.32     19.74 
 H(Fragment=2)         25.79     14.79     20.44 
 O(Fragment=2)         19.36     23.74     26.85 
 H(Fragment=2)         20.27     23.72     26.56 
 H(Fragment=2)         19.04     22.85     26.7 
 O(Fragment=2)         15.89     24.52     15.56 
 H(Fragment=2)         16.22     23.82     14.99 
 H(Fragment=2)         15.21     24.1      16.09 
 O(Fragment=2)         20.31     13.43     16.72 
 H(Fragment=2)         19.45     13.01     16.8 
 H(Fragment=2)         20.8      12.86     16.11 
 O(Fragment=2)         13.9      22.78     24.64 
 H(Fragment=2)         13.06     23.18     24.42 
 H(Fragment=2)         14.42     22.86     23.84 
 O(Fragment=2)         17.75     14.76     24.68 
 H(Fragment=2)         18.11     14.77     25.57 
 H(Fragment=2)         16.81     14.87     24.8 
 O(Fragment=2)         11.81     18.63     20.02 
 H(Fragment=2)         12.7      18.75     20.34 
 H(Fragment=2)         11.57     17.75     20.31 
 O(Fragment=2)         28.23     20.66     19.94 
 H(Fragment=2)         27.48     20.13     19.67 
 H(Fragment=2)         28.79     20.05     20.42 
 O(Fragment=2)         20.33     19.76     11.77 
 H(Fragment=2)         21.01     20.28     12.19 
 H(Fragment=2)         20.01     19.17     12.46 
 O(Fragment=2)         25.13     13.87     22.94 
 H(Fragment=2)         24.62     14.68     22.86 
 H(Fragment=2)         25.44     13.71     22.05 
 O(Fragment=2)         15.47     14.6      15.74 
 H(Fragment=2)         15.06     13.75     15.56 
 H(Fragment=2)         16.01     14.43     16.51 
 O(Fragment=2)         16.57     22.85     13.41 
 H(Fragment=2)         16.1      22.02     13.4 
 H(Fragment=2)         17.46     22.62     13.14 
 O(Fragment=2)         20.43     17.3      27.65 
 H(Fragment=2)         21.32     17.16     27.98 
 H(Fragment=2)         20.34     18.25     27.59 
 O(Fragment=2)         26.07     18.33     24.63 
 H(Fragment=2)         25.87     18.61     25.52 
 H(Fragment=2)         26.84     18.83     24.38 
 O(Fragment=2)         26.76     24.29     23.63 
 H(Fragment=2)         27.24     24.44     22.81 
 H(Fragment=2)         26.       23.77     23.38 
 O(Fragment=2)         24.68     26.08     17.38 
 H(Fragment=2)         25.28     25.54     17.9 
 H(Fragment=2)         25.03     26.04     16.49 
 O(Fragment=2)         26.48     23.8      15.44 
 H(Fragment=2)         25.56     23.57     15.56 
 H(Fragment=2)         26.77     24.07     16.31 
 O(Fragment=2)         15.37     19.61     12.68 
 H(Fragment=2)         14.53     19.81     12.26 
 H(Fragment=2)         15.28     19.97     13.56 
 O(Fragment=2)         14.55     13.14     18.78 
 H(Fragment=2)         14.02     13.79     19.26 
 H(Fragment=2)         15.4      13.56     18.68 
 O(Fragment=2)         11.35     22.59     19.41 
 H(Fragment=2)         12.24     22.37     19.7 
 H(Fragment=2)         11.17     23.43     19.83 
 O(Fragment=2)         14.08     21.46     14.47 
 H(Fragment=2)         13.43     21.99     14.01 
 H(Fragment=2)         13.57     21.       15.14 
 O(Fragment=2)         14.83     26.33     23.42 
 H(Fragment=2)         14.96     27.05     24.03 
 H(Fragment=2)         15.69     26.2      23.02 
 O(Fragment=2)         27.19     24.64     18.15 
 H(Fragment=2)         27.96     24.08     18. 
 H(Fragment=2)         26.83     24.33     18.98 
 O(Fragment=2)         26.75     21.53     24.31 
 H(Fragment=2)         27.24     21.85     25.07 
 H(Fragment=2)         27.29     20.83     23.95 
 O(Fragment=2)         20.62     14.87     13.39 
 H(Fragment=2)         20.2      14.37     14.09 
 H(Fragment=2)         19.97     14.89     12.69 
 O(Fragment=2)         14.15     16.78     15.05 
 H(Fragment=2)         14.65     16.71     14.23 
 H(Fragment=2)         14.4      16.       15.54 
 O(Fragment=2)         22.31     22.05     28.07 
 H(Fragment=2)         23.18     21.69     27.92 
 H(Fragment=2)         22.22     22.74     27.42 
 O(Fragment=2)         12.76     18.98     15.68 
 H(Fragment=2)         13.34     18.25     15.46 
 H(Fragment=2)         12.24     19.12     14.88 
 O(Fragment=2)         12.66     14.93     20.01 
 H(Fragment=2)         12.9      15.65     20.58 
 H(Fragment=2)         12.2      15.34     19.28 
 O(Fragment=2)         27.53     16.96     22.12 
 H(Fragment=2)         27.23     16.22     22.65 
 H(Fragment=2)         28.48     16.87     22.11 
 O(Fragment=2)         28.4      17.11     18.86 
 H(Fragment=2)         27.71     16.67     19.37 
 H(Fragment=2)         28.93     17.56     19.52 
 O(Fragment=2)         28.28     19.12     23.51 
 H(Fragment=2)         29.17     19.19     23.16 
 H(Fragment=2)         27.82     18.56     22.89 
 O(Fragment=2)         27.22     21.13     15.65 
 H(Fragment=2)         27.42     22.05     15.82 
 H(Fragment=2)         28.06     20.76     15.38 
 O(Fragment=2)         19.36     22.66     11.48 
 H(Fragment=2)         19.84     21.85     11.64 
 H(Fragment=2)         19.53     22.86     10.56 
 O(Fragment=2)         16.85     21.39     28.38 
 H(Fragment=2)         16.55     21.87     29.15 
 H(Fragment=2)         16.63     21.97     27.64 
 O(Fragment=2)         18.36     11.89     17.53 
 H(Fragment=2)         18.14     11.32     18.26 
 H(Fragment=2)         18.12     11.38     16.75 
 O(Fragment=2)         19.77     27.87     25.15 
 H(Fragment=2)         19.66     28.78     24.9 
 H(Fragment=2)         19.32     27.38     24.45 
 O(Fragment=2)         23.29     11.05     20.3 
 H(Fragment=2)         24.03     10.76     19.77 
 H(Fragment=2)         23.06     11.9      19.93 
 O(Fragment=2)         19.56     20.34     28.66 
 H(Fragment=2)         19.94     20.85     29.37 
 H(Fragment=2)         18.62     20.53     28.69 
 O(Fragment=2)         24.94     21.89     27.09 
 H(Fragment=2)         25.41     22.14     27.89 
 H(Fragment=2)         25.26     22.51     26.43 
 O(Fragment=2)         11.76     16.24     17.6 
 H(Fragment=2)         10.99     16.68     17.98 
 H(Fragment=2)         12.32     16.96     17.3 
 O(Fragment=2)         13.52     26.62     21.11 
 H(Fragment=2)         13.68     26.49     22.05 
 H(Fragment=2)         14.4      26.65     20.73 
 O(Fragment=2)         25.08     24.42     25.84 
 H(Fragment=2)         25.63     24.34     25.06 
 H(Fragment=2)         25.16     25.34     26.1 
 O(Fragment=2)         25.91     15.4      25.55 
 H(Fragment=2)         25.9      16.31     25.27 
 H(Fragment=2)         25.       15.22     25.8 
 O(Fragment=2)         17.04     12.27     22.78 
 H(Fragment=2)         16.17     11.93     22.55 
 H(Fragment=2)         17.1      12.14     23.72 
 O(Fragment=2)         22.03     28.67     20.46 
 H(Fragment=2)         22.2      29.34     21.13 
 H(Fragment=2)         21.08     28.69     20.33 
 O(Fragment=2)         21.01     28.49     16.28 
 H(Fragment=2)         20.77     27.85     15.61 
 H(Fragment=2)         20.47     28.27     17.04 
 O(Fragment=2)         20.5      25.04     12.52 
 H(Fragment=2)         19.82     25.43     13.07 
 H(Fragment=2)         20.08     24.27     12.12 
 O(Fragment=2)         18.4      15.23     27.5 
 H(Fragment=2)         17.7      15.84     27.75 
 H(Fragment=2)         19.21     15.71     27.66 
 O(Fragment=2)         17.8      10.85     20.21 
 H(Fragment=2)         17.61     11.53     20.86 
 H(Fragment=2)         18.64     10.48     20.49 
 O(Fragment=2)         15.21     27.06     15.47 
 H(Fragment=2)         15.41     26.12     15.5 
 H(Fragment=2)         16.07     27.48     15.5 
 O(Fragment=2)         19.03     29.34     22.27 
 H(Fragment=2)         19.13     28.7      21.57 
 H(Fragment=2)         18.33     28.99     22.82 
 O(Fragment=2)         11.84     22.4      22.6 
 H(Fragment=2)         11.1      22.14     22.06 
 H(Fragment=2)         11.75     23.34     22.69 
 O(Fragment=2)         25.22     19.09     27.64 
 H(Fragment=2)         26.17     19.23     27.63 
 H(Fragment=2)         24.84     19.96     27.53 
 O(Fragment=2)         26.4      16.03     13.68 
 H(Fragment=2)         27.04     16.22     14.36 
 H(Fragment=2)         25.55     16.19     14.1 
 O(Fragment=2)         18.63     26.43     27.15 
 H(Fragment=2)         18.99     27.08     26.55 
 H(Fragment=2)         19.16     25.64     26.98 
 O(Fragment=2)         23.02     11.72     16.14 
 H(Fragment=2)         22.83     11.75     17.08 
 H(Fragment=2)         23.21     12.63     15.9 
 O(Fragment=2)         23.81     28.67     18.11 
 H(Fragment=2)         23.24     28.54     18.87 
 H(Fragment=2)         23.68     27.89     17.57 
 O(Fragment=2)         25.98     27.74     19.61 
 H(Fragment=2)         25.97     26.79     19.72 
 H(Fragment=2)         25.25     27.92     19.02 
 O(Fragment=2)         12.2      18.59     25.9 
 H(Fragment=2)         13.07     18.97     25.77 
 H(Fragment=2)         12.15     18.45     26.85 
 O(Fragment=2)         23.15     24.98     13. 
 H(Fragment=2)         22.27     24.87     12.63 
 H(Fragment=2)         23.74     24.85     12.26 
 
 NAtoms=    385 NQM=      385 NQMF=       0 NMMI=      0 NMMIF=      0
                NMic=       0 NMicF=      0.
                    Isotopes and Nuclear Properties:
 (Nuclear quadrupole moments (NQMom) in fm**2, nuclear magnetic moments (NMagM)
  in nuclear magnetons)

  Atom         1           2           3           4           5           6           7           8           9          10
 IAtWgt=          79          16           1           1          16           1           1          16           1           1
 AtmWgt=  78.9183361  15.9949146   1.0078250   1.0078250  15.9949146   1.0078250   1.0078250  15.9949146   1.0078250   1.0078250
 NucSpn=           3           0           1           1           0           1           1           0           1           1
 AtZEff=   0.0000000   0.0000000   0.0000000   0.0000000   0.0000000   0.0000000   0.0000000   0.0000000   0.0000000   0.0000000
 NQMom=   31.3000000   0.0000000   0.0000000   0.0000000   0.0000000   0.0000000   0.0000000   0.0000000   0.0000000   0.0000000
 NMagM=    2.1063990   0.0000000   2.7928460   2.7928460   0.0000000   2.7928460   2.7928460   0.0000000   2.7928460   2.7928460
 AtZNuc=  35.0000000   8.0000000   1.0000000   1.0000000   8.0000000   1.0000000   1.0000000   8.0000000   1.0000000   1.0000000

  Atom        11          12          13          14          15          16          17          18          19          20
 IAtWgt=          16           1           1          16           1           1          16           1           1          16
 AtmWgt=  15.9949146   1.0078250   1.0078250  15.9949146   1.0078250   1.0078250  15.9949146   1.0078250   1.0078250  15.9949146
 NucSpn=           0           1           1           0           1           1           0           1           1           0
 AtZEff=   0.0000000   0.0000000   0.0000000   0.0000000   0.0000000   0.0000000   0.0000000   0.0000000   0.0000000   0.0000000
 NQMom=    0.0000000   0.0000000   0.0000000   0.0000000   0.0000000   0.0000000   0.0000000   0.0000000   0.0000000   0.0000000
 NMagM=    0.0000000   2.7928460   2.7928460   0.0000000   2.7928460   2.7928460   0.0000000   2.7928460   2.7928460   0.0000000
 AtZNuc=   8.0000000   1.0000000   1.0000000   8.0000000   1.0000000   1.0000000   8.0000000   1.0000000   1.0000000   8.0000000

  Atom        21          22          23          24          25          26          27          28          29          30
 IAtWgt=           1           1          16           1           1          16           1           1          16           1
 AtmWgt=   1.0078250   1.0078250  15.9949146   1.0078250   1.0078250  15.9949146   1.0078250   1.0078250  15.9949146   1.0078250
 NucSpn=           1           1           0           1           1           0           1           1           0           1
 AtZEff=   0.0000000   0.0000000   0.0000000   0.0000000   0.0000000   0.0000000   0.0000000   0.0000000   0.0000000   0.0000000
 NQMom=    0.0000000   0.0000000   0.0000000   0.0000000   0.0000000   0.0000000   0.0000000   0.0000000   0.0000000   0.0000000
 NMagM=    2.7928460   2.7928460   0.0000000   2.7928460   2.7928460   0.0000000   2.7928460   2.7928460   0.0000000   2.7928460
 AtZNuc=   1.0000000   1.0000000   8.0000000   1.0000000   1.0000000   8.0000000   1.0000000   1.0000000   8.0000000   1.0000000

  Atom        31          32          33          34          35          36          37          38          39          40
 IAtWgt=           1          16           1           1          16           1           1          16           1           1
 AtmWgt=   1.0078250  15.9949146   1.0078250   1.0078250  15.9949146   1.0078250   1.0078250  15.9949146   1.0078250   1.0078250
 NucSpn=           1           0           1           1           0           1           1           0           1           1
 AtZEff=   0.0000000   0.0000000   0.0000000   0.0000000   0.0000000   0.0000000   0.0000000   0.0000000   0.0000000   0.0000000
 NQMom=    0.0000000   0.0000000   0.0000000   0.0000000   0.0000000   0.0000000   0.0000000   0.0000000   0.0000000   0.0000000
 NMagM=    2.7928460   0.0000000   2.7928460   2.7928460   0.0000000   2.7928460   2.7928460   0.0000000   2.7928460   2.7928460
 AtZNuc=   1.0000000   8.0000000   1.0000000   1.0000000   8.0000000   1.0000000   1.0000000   8.0000000   1.0000000   1.0000000

  Atom        41          42          43          44          45          46          47          48          49          50
 IAtWgt=          16           1           1          16           1           1          16           1           1          16
 AtmWgt=  15.9949146   1.0078250   1.0078250  15.9949146   1.0078250   1.0078250  15.9949146   1.0078250   1.0078250  15.9949146
 NucSpn=           0           1           1           0           1           1           0           1           1           0
 AtZEff=   0.0000000   0.0000000   0.0000000   0.0000000   0.0000000   0.0000000   0.0000000   0.0000000   0.0000000   0.0000000
 NQMom=    0.0000000   0.0000000   0.0000000   0.0000000   0.0000000   0.0000000   0.0000000   0.0000000   0.0000000   0.0000000
 NMagM=    0.0000000   2.7928460   2.7928460   0.0000000   2.7928460   2.7928460   0.0000000   2.7928460   2.7928460   0.0000000
 AtZNuc=   8.0000000   1.0000000   1.0000000   8.0000000   1.0000000   1.0000000   8.0000000   1.0000000   1.0000000   8.0000000

  Atom        51          52          53          54          55          56          57          58          59          60
 IAtWgt=           1           1          16           1           1          16           1           1          16           1
 AtmWgt=   1.0078250   1.0078250  15.9949146   1.0078250   1.0078250  15.9949146   1.0078250   1.0078250  15.9949146   1.0078250
 NucSpn=           1           1           0           1           1           0           1           1           0           1
 AtZEff=   0.0000000   0.0000000   0.0000000   0.0000000   0.0000000   0.0000000   0.0000000   0.0000000   0.0000000   0.0000000
 NQMom=    0.0000000   0.0000000   0.0000000   0.0000000   0.0000000   0.0000000   0.0000000   0.0000000   0.0000000   0.0000000
 NMagM=    2.7928460   2.7928460   0.0000000   2.7928460   2.7928460   0.0000000   2.7928460   2.7928460   0.0000000   2.7928460
 AtZNuc=   1.0000000   1.0000000   8.0000000   1.0000000   1.0000000   8.0000000   1.0000000   1.0000000   8.0000000   1.0000000

  Atom        61          62          63          64          65          66          67          68          69          70
 IAtWgt=           1          16           1           1          16           1           1          16           1           1
 AtmWgt=   1.0078250  15.9949146   1.0078250   1.0078250  15.9949146   1.0078250   1.0078250  15.9949146   1.0078250   1.0078250
 NucSpn=           1           0           1           1           0           1           1           0           1           1
 AtZEff=   0.0000000   0.0000000   0.0000000   0.0000000   0.0000000   0.0000000   0.0000000   0.0000000   0.0000000   0.0000000
 NQMom=    0.0000000   0.0000000   0.0000000   0.0000000   0.0000000   0.0000000   0.0000000   0.0000000   0.0000000   0.0000000
 NMagM=    2.7928460   0.0000000   2.7928460   2.7928460   0.0000000   2.7928460   2.7928460   0.0000000   2.7928460   2.7928460
 AtZNuc=   1.0000000   8.0000000   1.0000000   1.0000000   8.0000000   1.0000000   1.0000000   8.0000000   1.0000000   1.0000000

  Atom        71          72          73          74          75          76          77          78          79          80
 IAtWgt=          16           1           1          16           1           1          16           1           1          16
 AtmWgt=  15.9949146   1.0078250   1.0078250  15.9949146   1.0078250   1.0078250  15.9949146   1.0078250   1.0078250  15.9949146
 NucSpn=           0           1           1           0           1           1           0           1           1           0
 AtZEff=   0.0000000   0.0000000   0.0000000   0.0000000   0.0000000   0.0000000   0.0000000   0.0000000   0.0000000   0.0000000
 NQMom=    0.0000000   0.0000000   0.0000000   0.0000000   0.0000000   0.0000000   0.0000000   0.0000000   0.0000000   0.0000000
 NMagM=    0.0000000   2.7928460   2.7928460   0.0000000   2.7928460   2.7928460   0.0000000   2.7928460   2.7928460   0.0000000
 AtZNuc=   8.0000000   1.0000000   1.0000000   8.0000000   1.0000000   1.0000000   8.0000000   1.0000000   1.0000000   8.0000000

  Atom        81          82          83          84          85          86          87          88          89          90
 IAtWgt=           1           1          16           1           1          16           1           1          16           1
 AtmWgt=   1.0078250   1.0078250  15.9949146   1.0078250   1.0078250  15.9949146   1.0078250   1.0078250  15.9949146   1.0078250
 NucSpn=           1           1           0           1           1           0           1           1           0           1
 AtZEff=   0.0000000   0.0000000   0.0000000   0.0000000   0.0000000   0.0000000   0.0000000   0.0000000   0.0000000   0.0000000
 NQMom=    0.0000000   0.0000000   0.0000000   0.0000000   0.0000000   0.0000000   0.0000000   0.0000000   0.0000000   0.0000000
 NMagM=    2.7928460   2.7928460   0.0000000   2.7928460   2.7928460   0.0000000   2.7928460   2.7928460   0.0000000   2.7928460
 AtZNuc=   1.0000000   1.0000000   8.0000000   1.0000000   1.0000000   8.0000000   1.0000000   1.0000000   8.0000000   1.0000000

  Atom        91          92          93          94          95          96          97          98          99         100
 IAtWgt=           1          16           1           1          16           1           1          16           1           1
 AtmWgt=   1.0078250  15.9949146   1.0078250   1.0078250  15.9949146   1.0078250   1.0078250  15.9949146   1.0078250   1.0078250
 NucSpn=           1           0           1           1           0           1           1           0           1           1
 AtZEff=   0.0000000   0.0000000   0.0000000   0.0000000   0.0000000   0.0000000   0.0000000   0.0000000   0.0000000   0.0000000
 NQMom=    0.0000000   0.0000000   0.0000000   0.0000000   0.0000000   0.0000000   0.0000000   0.0000000   0.0000000   0.0000000
 NMagM=    2.7928460   0.0000000   2.7928460   2.7928460   0.0000000   2.7928460   2.7928460   0.0000000   2.7928460   2.7928460
 AtZNuc=   1.0000000   8.0000000   1.0000000   1.0000000   8.0000000   1.0000000   1.0000000   8.0000000   1.0000000   1.0000000

  Atom       101         102         103         104         105         106         107         108         109         110
 IAtWgt=          16           1           1          16           1           1          16           1           1          16
 AtmWgt=  15.9949146   1.0078250   1.0078250  15.9949146   1.0078250   1.0078250  15.9949146   1.0078250   1.0078250  15.9949146
 NucSpn=           0           1           1           0           1           1           0           1           1           0
 AtZEff=   0.0000000   0.0000000   0.0000000   0.0000000   0.0000000   0.0000000   0.0000000   0.0000000   0.0000000   0.0000000
 NQMom=    0.0000000   0.0000000   0.0000000   0.0000000   0.0000000   0.0000000   0.0000000   0.0000000   0.0000000   0.0000000
 NMagM=    0.0000000   2.7928460   2.7928460   0.0000000   2.7928460   2.7928460   0.0000000   2.7928460   2.7928460   0.0000000
 AtZNuc=   8.0000000   1.0000000   1.0000000   8.0000000   1.0000000   1.0000000   8.0000000   1.0000000   1.0000000   8.0000000

  Atom       111         112         113         114         115         116         117         118         119         120
 IAtWgt=           1           1          16           1           1          16           1           1          16           1
 AtmWgt=   1.0078250   1.0078250  15.9949146   1.0078250   1.0078250  15.9949146   1.0078250   1.0078250  15.9949146   1.0078250
 NucSpn=           1           1           0           1           1           0           1           1           0           1
 AtZEff=   0.0000000   0.0000000   0.0000000   0.0000000   0.0000000   0.0000000   0.0000000   0.0000000   0.0000000   0.0000000
 NQMom=    0.0000000   0.0000000   0.0000000   0.0000000   0.0000000   0.0000000   0.0000000   0.0000000   0.0000000   0.0000000
 NMagM=    2.7928460   2.7928460   0.0000000   2.7928460   2.7928460   0.0000000   2.7928460   2.7928460   0.0000000   2.7928460
 AtZNuc=   1.0000000   1.0000000   8.0000000   1.0000000   1.0000000   8.0000000   1.0000000   1.0000000   8.0000000   1.0000000

  Atom       121         122         123         124         125         126         127         128         129         130
 IAtWgt=           1          16           1           1          16           1           1          16           1           1
 AtmWgt=   1.0078250  15.9949146   1.0078250   1.0078250  15.9949146   1.0078250   1.0078250  15.9949146   1.0078250   1.0078250
 NucSpn=           1           0           1           1           0           1           1           0           1           1
 AtZEff=   0.0000000   0.0000000   0.0000000   0.0000000   0.0000000   0.0000000   0.0000000   0.0000000   0.0000000   0.0000000
 NQMom=    0.0000000   0.0000000   0.0000000   0.0000000   0.0000000   0.0000000   0.0000000   0.0000000   0.0000000   0.0000000
 NMagM=    2.7928460   0.0000000   2.7928460   2.7928460   0.0000000   2.7928460   2.7928460   0.0000000   2.7928460   2.7928460
 AtZNuc=   1.0000000   8.0000000   1.0000000   1.0000000   8.0000000   1.0000000   1.0000000   8.0000000   1.0000000   1.0000000

  Atom       131         132         133         134         135         136         137         138         139         140
 IAtWgt=          16           1           1          16           1           1          16           1           1          16
 AtmWgt=  15.9949146   1.0078250   1.0078250  15.9949146   1.0078250   1.0078250  15.9949146   1.0078250   1.0078250  15.9949146
 NucSpn=           0           1           1           0           1           1           0           1           1           0
 AtZEff=   0.0000000   0.0000000   0.0000000   0.0000000   0.0000000   0.0000000   0.0000000   0.0000000   0.0000000   0.0000000
 NQMom=    0.0000000   0.0000000   0.0000000   0.0000000   0.0000000   0.0000000   0.0000000   0.0000000   0.0000000   0.0000000
 NMagM=    0.0000000   2.7928460   2.7928460   0.0000000   2.7928460   2.7928460   0.0000000   2.7928460   2.7928460   0.0000000
 AtZNuc=   8.0000000   1.0000000   1.0000000   8.0000000   1.0000000   1.0000000   8.0000000   1.0000000   1.0000000   8.0000000

  Atom       141         142         143         144         145         146         147         148         149         150
 IAtWgt=           1           1          16           1           1          16           1           1          16           1
 AtmWgt=   1.0078250   1.0078250  15.9949146   1.0078250   1.0078250  15.9949146   1.0078250   1.0078250  15.9949146   1.0078250
 NucSpn=           1           1           0           1           1           0           1           1           0           1
 AtZEff=   0.0000000   0.0000000   0.0000000   0.0000000   0.0000000   0.0000000   0.0000000   0.0000000   0.0000000   0.0000000
 NQMom=    0.0000000   0.0000000   0.0000000   0.0000000   0.0000000   0.0000000   0.0000000   0.0000000   0.0000000   0.0000000
 NMagM=    2.7928460   2.7928460   0.0000000   2.7928460   2.7928460   0.0000000   2.7928460   2.7928460   0.0000000   2.7928460
 AtZNuc=   1.0000000   1.0000000   8.0000000   1.0000000   1.0000000   8.0000000   1.0000000   1.0000000   8.0000000   1.0000000

  Atom       151         152         153         154         155         156         157         158         159         160
 IAtWgt=           1          16           1           1          16           1           1          16           1           1
 AtmWgt=   1.0078250  15.9949146   1.0078250   1.0078250  15.9949146   1.0078250   1.0078250  15.9949146   1.0078250   1.0078250
 NucSpn=           1           0           1           1           0           1           1           0           1           1
 AtZEff=   0.0000000   0.0000000   0.0000000   0.0000000   0.0000000   0.0000000   0.0000000   0.0000000   0.0000000   0.0000000
 NQMom=    0.0000000   0.0000000   0.0000000   0.0000000   0.0000000   0.0000000   0.0000000   0.0000000   0.0000000   0.0000000
 NMagM=    2.7928460   0.0000000   2.7928460   2.7928460   0.0000000   2.7928460   2.7928460   0.0000000   2.7928460   2.7928460
 AtZNuc=   1.0000000   8.0000000   1.0000000   1.0000000   8.0000000   1.0000000   1.0000000   8.0000000   1.0000000   1.0000000

  Atom       161         162         163         164         165         166         167         168         169         170
 IAtWgt=          16           1           1          16           1           1          16           1           1          16
 AtmWgt=  15.9949146   1.0078250   1.0078250  15.9949146   1.0078250   1.0078250  15.9949146   1.0078250   1.0078250  15.9949146
 NucSpn=           0           1           1           0           1           1           0           1           1           0
 AtZEff=   0.0000000   0.0000000   0.0000000   0.0000000   0.0000000   0.0000000   0.0000000   0.0000000   0.0000000   0.0000000
 NQMom=    0.0000000   0.0000000   0.0000000   0.0000000   0.0000000   0.0000000   0.0000000   0.0000000   0.0000000   0.0000000
 NMagM=    0.0000000   2.7928460   2.7928460   0.0000000   2.7928460   2.7928460   0.0000000   2.7928460   2.7928460   0.0000000
 AtZNuc=   8.0000000   1.0000000   1.0000000   8.0000000   1.0000000   1.0000000   8.0000000   1.0000000   1.0000000   8.0000000

  Atom       171         172         173         174         175         176         177         178         179         180
 IAtWgt=           1           1          16           1           1          16           1           1          16           1
 AtmWgt=   1.0078250   1.0078250  15.9949146   1.0078250   1.0078250  15.9949146   1.0078250   1.0078250  15.9949146   1.0078250
 NucSpn=           1           1           0           1           1           0           1           1           0           1
 AtZEff=   0.0000000   0.0000000   0.0000000   0.0000000   0.0000000   0.0000000   0.0000000   0.0000000   0.0000000   0.0000000
 NQMom=    0.0000000   0.0000000   0.0000000   0.0000000   0.0000000   0.0000000   0.0000000   0.0000000   0.0000000   0.0000000
 NMagM=    2.7928460   2.7928460   0.0000000   2.7928460   2.7928460   0.0000000   2.7928460   2.7928460   0.0000000   2.7928460
 AtZNuc=   1.0000000   1.0000000   8.0000000   1.0000000   1.0000000   8.0000000   1.0000000   1.0000000   8.0000000   1.0000000

  Atom       181         182         183         184         185         186         187         188         189         190
 IAtWgt=           1          16           1           1          16           1           1          16           1           1
 AtmWgt=   1.0078250  15.9949146   1.0078250   1.0078250  15.9949146   1.0078250   1.0078250  15.9949146   1.0078250   1.0078250
 NucSpn=           1           0           1           1           0           1           1           0           1           1
 AtZEff=   0.0000000   0.0000000   0.0000000   0.0000000   0.0000000   0.0000000   0.0000000   0.0000000   0.0000000   0.0000000
 NQMom=    0.0000000   0.0000000   0.0000000   0.0000000   0.0000000   0.0000000   0.0000000   0.0000000   0.0000000   0.0000000
 NMagM=    2.7928460   0.0000000   2.7928460   2.7928460   0.0000000   2.7928460   2.7928460   0.0000000   2.7928460   2.7928460
 AtZNuc=   1.0000000   8.0000000   1.0000000   1.0000000   8.0000000   1.0000000   1.0000000   8.0000000   1.0000000   1.0000000

  Atom       191         192         193         194         195         196         197         198         199         200
 IAtWgt=          16           1           1          16           1           1          16           1           1          16
 AtmWgt=  15.9949146   1.0078250   1.0078250  15.9949146   1.0078250   1.0078250  15.9949146   1.0078250   1.0078250  15.9949146
 NucSpn=           0           1           1           0           1           1           0           1           1           0
 AtZEff=   0.0000000   0.0000000   0.0000000   0.0000000   0.0000000   0.0000000   0.0000000   0.0000000   0.0000000   0.0000000
 NQMom=    0.0000000   0.0000000   0.0000000   0.0000000   0.0000000   0.0000000   0.0000000   0.0000000   0.0000000   0.0000000
 NMagM=    0.0000000   2.7928460   2.7928460   0.0000000   2.7928460   2.7928460   0.0000000   2.7928460   2.7928460   0.0000000
 AtZNuc=   8.0000000   1.0000000   1.0000000   8.0000000   1.0000000   1.0000000   8.0000000   1.0000000   1.0000000   8.0000000

  Atom       201         202         203         204         205         206         207         208         209         210
 IAtWgt=           1           1          16           1           1          16           1           1          16           1
 AtmWgt=   1.0078250   1.0078250  15.9949146   1.0078250   1.0078250  15.9949146   1.0078250   1.0078250  15.9949146   1.0078250
 NucSpn=           1           1           0           1           1           0           1           1           0           1
 AtZEff=   0.0000000   0.0000000   0.0000000   0.0000000   0.0000000   0.0000000   0.0000000   0.0000000   0.0000000   0.0000000
 NQMom=    0.0000000   0.0000000   0.0000000   0.0000000   0.0000000   0.0000000   0.0000000   0.0000000   0.0000000   0.0000000
 NMagM=    2.7928460   2.7928460   0.0000000   2.7928460   2.7928460   0.0000000   2.7928460   2.7928460   0.0000000   2.7928460
 AtZNuc=   1.0000000   1.0000000   8.0000000   1.0000000   1.0000000   8.0000000   1.0000000   1.0000000   8.0000000   1.0000000

  Atom       211         212         213         214         215         216         217         218         219         220
 IAtWgt=           1          16           1           1          16           1           1          16           1           1
 AtmWgt=   1.0078250  15.9949146   1.0078250   1.0078250  15.9949146   1.0078250   1.0078250  15.9949146   1.0078250   1.0078250
 NucSpn=           1           0           1           1           0           1           1           0           1           1
 AtZEff=   0.0000000   0.0000000   0.0000000   0.0000000   0.0000000   0.0000000   0.0000000   0.0000000   0.0000000   0.0000000
 NQMom=    0.0000000   0.0000000   0.0000000   0.0000000   0.0000000   0.0000000   0.0000000   0.0000000   0.0000000   0.0000000
 NMagM=    2.7928460   0.0000000   2.7928460   2.7928460   0.0000000   2.7928460   2.7928460   0.0000000   2.7928460   2.7928460
 AtZNuc=   1.0000000   8.0000000   1.0000000   1.0000000   8.0000000   1.0000000   1.0000000   8.0000000   1.0000000   1.0000000

  Atom       221         222         223         224         225         226         227         228         229         230
 IAtWgt=          16           1           1          16           1           1          16           1           1          16
 AtmWgt=  15.9949146   1.0078250   1.0078250  15.9949146   1.0078250   1.0078250  15.9949146   1.0078250   1.0078250  15.9949146
 NucSpn=           0           1           1           0           1           1           0           1           1           0
 AtZEff=   0.0000000   0.0000000   0.0000000   0.0000000   0.0000000   0.0000000   0.0000000   0.0000000   0.0000000   0.0000000
 NQMom=    0.0000000   0.0000000   0.0000000   0.0000000   0.0000000   0.0000000   0.0000000   0.0000000   0.0000000   0.0000000
 NMagM=    0.0000000   2.7928460   2.7928460   0.0000000   2.7928460   2.7928460   0.0000000   2.7928460   2.7928460   0.0000000
 AtZNuc=   8.0000000   1.0000000   1.0000000   8.0000000   1.0000000   1.0000000   8.0000000   1.0000000   1.0000000   8.0000000

  Atom       231         232         233         234         235         236         237         238         239         240
 IAtWgt=           1           1          16           1           1          16           1           1          16           1
 AtmWgt=   1.0078250   1.0078250  15.9949146   1.0078250   1.0078250  15.9949146   1.0078250   1.0078250  15.9949146   1.0078250
 NucSpn=           1           1           0           1           1           0           1           1           0           1
 AtZEff=   0.0000000   0.0000000   0.0000000   0.0000000   0.0000000   0.0000000   0.0000000   0.0000000   0.0000000   0.0000000
 NQMom=    0.0000000   0.0000000   0.0000000   0.0000000   0.0000000   0.0000000   0.0000000   0.0000000   0.0000000   0.0000000
 NMagM=    2.7928460   2.7928460   0.0000000   2.7928460   2.7928460   0.0000000   2.7928460   2.7928460   0.0000000   2.7928460
 AtZNuc=   1.0000000   1.0000000   8.0000000   1.0000000   1.0000000   8.0000000   1.0000000   1.0000000   8.0000000   1.0000000

  Atom       241         242         243         244         245         246         247         248         249         250
 IAtWgt=           1          16           1           1          16           1           1          16           1           1
 AtmWgt=   1.0078250  15.9949146   1.0078250   1.0078250  15.9949146   1.0078250   1.0078250  15.9949146   1.0078250   1.0078250
 NucSpn=           1           0           1           1           0           1           1           0           1           1
 AtZEff=   0.0000000   0.0000000   0.0000000   0.0000000   0.0000000   0.0000000   0.0000000   0.0000000   0.0000000   0.0000000
 NQMom=    0.0000000   0.0000000   0.0000000   0.0000000   0.0000000   0.0000000   0.0000000   0.0000000   0.0000000   0.0000000
 NMagM=    2.7928460   0.0000000   2.7928460   2.7928460   0.0000000   2.7928460   2.7928460   0.0000000   2.7928460   2.7928460
 AtZNuc=   1.0000000   8.0000000   1.0000000   1.0000000   8.0000000   1.0000000   1.0000000   8.0000000   1.0000000   1.0000000

  Atom       251         252         253         254         255         256         257         258         259         260
 IAtWgt=          16           1           1          16           1           1          16           1           1          16
 AtmWgt=  15.9949146   1.0078250   1.0078250  15.9949146   1.0078250   1.0078250  15.9949146   1.0078250   1.0078250  15.9949146
 NucSpn=           0           1           1           0           1           1           0           1           1           0
 AtZEff=   0.0000000   0.0000000   0.0000000   0.0000000   0.0000000   0.0000000   0.0000000   0.0000000   0.0000000   0.0000000
 NQMom=    0.0000000   0.0000000   0.0000000   0.0000000   0.0000000   0.0000000   0.0000000   0.0000000   0.0000000   0.0000000
 NMagM=    0.0000000   2.7928460   2.7928460   0.0000000   2.7928460   2.7928460   0.0000000   2.7928460   2.7928460   0.0000000
 AtZNuc=   8.0000000   1.0000000   1.0000000   8.0000000   1.0000000   1.0000000   8.0000000   1.0000000   1.0000000   8.0000000

  Atom       261         262         263         264         265         266         267         268         269         270
 IAtWgt=           1           1          16           1           1          16           1           1          16           1
 AtmWgt=   1.0078250   1.0078250  15.9949146   1.0078250   1.0078250  15.9949146   1.0078250   1.0078250  15.9949146   1.0078250
 NucSpn=           1           1           0           1           1           0           1           1           0           1
 AtZEff=   0.0000000   0.0000000   0.0000000   0.0000000   0.0000000   0.0000000   0.0000000   0.0000000   0.0000000   0.0000000
 NQMom=    0.0000000   0.0000000   0.0000000   0.0000000   0.0000000   0.0000000   0.0000000   0.0000000   0.0000000   0.0000000
 NMagM=    2.7928460   2.7928460   0.0000000   2.7928460   2.7928460   0.0000000   2.7928460   2.7928460   0.0000000   2.7928460
 AtZNuc=   1.0000000   1.0000000   8.0000000   1.0000000   1.0000000   8.0000000   1.0000000   1.0000000   8.0000000   1.0000000

  Atom       271         272         273         274         275         276         277         278         279         280
 IAtWgt=           1          16           1           1          16           1           1          16           1           1
 AtmWgt=   1.0078250  15.9949146   1.0078250   1.0078250  15.9949146   1.0078250   1.0078250  15.9949146   1.0078250   1.0078250
 NucSpn=           1           0           1           1           0           1           1           0           1           1
 AtZEff=   0.0000000   0.0000000   0.0000000   0.0000000   0.0000000   0.0000000   0.0000000   0.0000000   0.0000000   0.0000000
 NQMom=    0.0000000   0.0000000   0.0000000   0.0000000   0.0000000   0.0000000   0.0000000   0.0000000   0.0000000   0.0000000
 NMagM=    2.7928460   0.0000000   2.7928460   2.7928460   0.0000000   2.7928460   2.7928460   0.0000000   2.7928460   2.7928460
 AtZNuc=   1.0000000   8.0000000   1.0000000   1.0000000   8.0000000   1.0000000   1.0000000   8.0000000   1.0000000   1.0000000

  Atom       281         282         283         284         285         286         287         288         289         290
 IAtWgt=          16           1           1          16           1           1          16           1           1          16
 AtmWgt=  15.9949146   1.0078250   1.0078250  15.9949146   1.0078250   1.0078250  15.9949146   1.0078250   1.0078250  15.9949146
 NucSpn=           0           1           1           0           1           1           0           1           1           0
 AtZEff=   0.0000000   0.0000000   0.0000000   0.0000000   0.0000000   0.0000000   0.0000000   0.0000000   0.0000000   0.0000000
 NQMom=    0.0000000   0.0000000   0.0000000   0.0000000   0.0000000   0.0000000   0.0000000   0.0000000   0.0000000   0.0000000
 NMagM=    0.0000000   2.7928460   2.7928460   0.0000000   2.7928460   2.7928460   0.0000000   2.7928460   2.7928460   0.0000000
 AtZNuc=   8.0000000   1.0000000   1.0000000   8.0000000   1.0000000   1.0000000   8.0000000   1.0000000   1.0000000   8.0000000

  Atom       291         292         293         294         295         296         297         298         299         300
 IAtWgt=           1           1          16           1           1          16           1           1          16           1
 AtmWgt=   1.0078250   1.0078250  15.9949146   1.0078250   1.0078250  15.9949146   1.0078250   1.0078250  15.9949146   1.0078250
 NucSpn=           1           1           0           1           1           0           1           1           0           1
 AtZEff=   0.0000000   0.0000000   0.0000000   0.0000000   0.0000000   0.0000000   0.0000000   0.0000000   0.0000000   0.0000000
 NQMom=    0.0000000   0.0000000   0.0000000   0.0000000   0.0000000   0.0000000   0.0000000   0.0000000   0.0000000   0.0000000
 NMagM=    2.7928460   2.7928460   0.0000000   2.7928460   2.7928460   0.0000000   2.7928460   2.7928460   0.0000000   2.7928460
 AtZNuc=   1.0000000   1.0000000   8.0000000   1.0000000   1.0000000   8.0000000   1.0000000   1.0000000   8.0000000   1.0000000

  Atom       301         302         303         304         305         306         307         308         309         310
 IAtWgt=           1          16           1           1          16           1           1          16           1           1
 AtmWgt=   1.0078250  15.9949146   1.0078250   1.0078250  15.9949146   1.0078250   1.0078250  15.9949146   1.0078250   1.0078250
 NucSpn=           1           0           1           1           0           1           1           0           1           1
 AtZEff=   0.0000000   0.0000000   0.0000000   0.0000000   0.0000000   0.0000000   0.0000000   0.0000000   0.0000000   0.0000000
 NQMom=    0.0000000   0.0000000   0.0000000   0.0000000   0.0000000   0.0000000   0.0000000   0.0000000   0.0000000   0.0000000
 NMagM=    2.7928460   0.0000000   2.7928460   2.7928460   0.0000000   2.7928460   2.7928460   0.0000000   2.7928460   2.7928460
 AtZNuc=   1.0000000   8.0000000   1.0000000   1.0000000   8.0000000   1.0000000   1.0000000   8.0000000   1.0000000   1.0000000

  Atom       311         312         313         314         315         316         317         318         319         320
 IAtWgt=          16           1           1          16           1           1          16           1           1          16
 AtmWgt=  15.9949146   1.0078250   1.0078250  15.9949146   1.0078250   1.0078250  15.9949146   1.0078250   1.0078250  15.9949146
 NucSpn=           0           1           1           0           1           1           0           1           1           0
 AtZEff=   0.0000000   0.0000000   0.0000000   0.0000000   0.0000000   0.0000000   0.0000000   0.0000000   0.0000000   0.0000000
 NQMom=    0.0000000   0.0000000   0.0000000   0.0000000   0.0000000   0.0000000   0.0000000   0.0000000   0.0000000   0.0000000
 NMagM=    0.0000000   2.7928460   2.7928460   0.0000000   2.7928460   2.7928460   0.0000000   2.7928460   2.7928460   0.0000000
 AtZNuc=   8.0000000   1.0000000   1.0000000   8.0000000   1.0000000   1.0000000   8.0000000   1.0000000   1.0000000   8.0000000

  Atom       321         322         323         324         325         326         327         328         329         330
 IAtWgt=           1           1          16           1           1          16           1           1          16           1
 AtmWgt=   1.0078250   1.0078250  15.9949146   1.0078250   1.0078250  15.9949146   1.0078250   1.0078250  15.9949146   1.0078250
 NucSpn=           1           1           0           1           1           0           1           1           0           1
 AtZEff=   0.0000000   0.0000000   0.0000000   0.0000000   0.0000000   0.0000000   0.0000000   0.0000000   0.0000000   0.0000000
 NQMom=    0.0000000   0.0000000   0.0000000   0.0000000   0.0000000   0.0000000   0.0000000   0.0000000   0.0000000   0.0000000
 NMagM=    2.7928460   2.7928460   0.0000000   2.7928460   2.7928460   0.0000000   2.7928460   2.7928460   0.0000000   2.7928460
 AtZNuc=   1.0000000   1.0000000   8.0000000   1.0000000   1.0000000   8.0000000   1.0000000   1.0000000   8.0000000   1.0000000

  Atom       331         332         333         334         335         336         337         338         339         340
 IAtWgt=           1          16           1           1          16           1           1          16           1           1
 AtmWgt=   1.0078250  15.9949146   1.0078250   1.0078250  15.9949146   1.0078250   1.0078250  15.9949146   1.0078250   1.0078250
 NucSpn=           1           0           1           1           0           1           1           0           1           1
 AtZEff=   0.0000000   0.0000000   0.0000000   0.0000000   0.0000000   0.0000000   0.0000000   0.0000000   0.0000000   0.0000000
 NQMom=    0.0000000   0.0000000   0.0000000   0.0000000   0.0000000   0.0000000   0.0000000   0.0000000   0.0000000   0.0000000
 NMagM=    2.7928460   0.0000000   2.7928460   2.7928460   0.0000000   2.7928460   2.7928460   0.0000000   2.7928460   2.7928460
 AtZNuc=   1.0000000   8.0000000   1.0000000   1.0000000   8.0000000   1.0000000   1.0000000   8.0000000   1.0000000   1.0000000

  Atom       341         342         343         344         345         346         347         348         349         350
 IAtWgt=          16           1           1          16           1           1          16           1           1          16
 AtmWgt=  15.9949146   1.0078250   1.0078250  15.9949146   1.0078250   1.0078250  15.9949146   1.0078250   1.0078250  15.9949146
 NucSpn=           0           1           1           0           1           1           0           1           1           0
 AtZEff=   0.0000000   0.0000000   0.0000000   0.0000000   0.0000000   0.0000000   0.0000000   0.0000000   0.0000000   0.0000000
 NQMom=    0.0000000   0.0000000   0.0000000   0.0000000   0.0000000   0.0000000   0.0000000   0.0000000   0.0000000   0.0000000
 NMagM=    0.0000000   2.7928460   2.7928460   0.0000000   2.7928460   2.7928460   0.0000000   2.7928460   2.7928460   0.0000000
 AtZNuc=   8.0000000   1.0000000   1.0000000   8.0000000   1.0000000   1.0000000   8.0000000   1.0000000   1.0000000   8.0000000

  Atom       351         352         353         354         355         356         357         358         359         360
 IAtWgt=           1           1          16           1           1          16           1           1          16           1
 AtmWgt=   1.0078250   1.0078250  15.9949146   1.0078250   1.0078250  15.9949146   1.0078250   1.0078250  15.9949146   1.0078250
 NucSpn=           1           1           0           1           1           0           1           1           0           1
 AtZEff=   0.0000000   0.0000000   0.0000000   0.0000000   0.0000000   0.0000000   0.0000000   0.0000000   0.0000000   0.0000000
 NQMom=    0.0000000   0.0000000   0.0000000   0.0000000   0.0000000   0.0000000   0.0000000   0.0000000   0.0000000   0.0000000
 NMagM=    2.7928460   2.7928460   0.0000000   2.7928460   2.7928460   0.0000000   2.7928460   2.7928460   0.0000000   2.7928460
 AtZNuc=   1.0000000   1.0000000   8.0000000   1.0000000   1.0000000   8.0000000   1.0000000   1.0000000   8.0000000   1.0000000

  Atom       361         362         363         364         365         366         367         368         369         370
 IAtWgt=           1          16           1           1          16           1           1          16           1           1
 AtmWgt=   1.0078250  15.9949146   1.0078250   1.0078250  15.9949146   1.0078250   1.0078250  15.9949146   1.0078250   1.0078250
 NucSpn=           1           0           1           1           0           1           1           0           1           1
 AtZEff=   0.0000000   0.0000000   0.0000000   0.0000000   0.0000000   0.0000000   0.0000000   0.0000000   0.0000000   0.0000000
 NQMom=    0.0000000   0.0000000   0.0000000   0.0000000   0.0000000   0.0000000   0.0000000   0.0000000   0.0000000   0.0000000
 NMagM=    2.7928460   0.0000000   2.7928460   2.7928460   0.0000000   2.7928460   2.7928460   0.0000000   2.7928460   2.7928460
 AtZNuc=   1.0000000   8.0000000   1.0000000   1.0000000   8.0000000   1.0000000   1.0000000   8.0000000   1.0000000   1.0000000

  Atom       371         372         373         374         375         376         377         378         379         380
 IAtWgt=          16           1           1          16           1           1          16           1           1          16
 AtmWgt=  15.9949146   1.0078250   1.0078250  15.9949146   1.0078250   1.0078250  15.9949146   1.0078250   1.0078250  15.9949146
 NucSpn=           0           1           1           0           1           1           0           1           1           0
 AtZEff=   0.0000000   0.0000000   0.0000000   0.0000000   0.0000000   0.0000000   0.0000000   0.0000000   0.0000000   0.0000000
 NQMom=    0.0000000   0.0000000   0.0000000   0.0000000   0.0000000   0.0000000   0.0000000   0.0000000   0.0000000   0.0000000
 NMagM=    0.0000000   2.7928460   2.7928460   0.0000000   2.7928460   2.7928460   0.0000000   2.7928460   2.7928460   0.0000000
 AtZNuc=   8.0000000   1.0000000   1.0000000   8.0000000   1.0000000   1.0000000   8.0000000   1.0000000   1.0000000   8.0000000

  Atom       381         382         383         384         385
 IAtWgt=           1           1          16           1           1
 AtmWgt=   1.0078250   1.0078250  15.9949146   1.0078250   1.0078250
 NucSpn=           1           1           0           1           1
 AtZEff=   0.0000000   0.0000000   0.0000000   0.0000000   0.0000000
 NQMom=    0.0000000   0.0000000   0.0000000   0.0000000   0.0000000
 NMagM=    2.7928460   2.7928460   0.0000000   2.7928460   2.7928460
 AtZNuc=   1.0000000   1.0000000   8.0000000   1.0000000   1.0000000
 Leave Link  101 at Thu May 17 17:45:37 2018, MaxMem= 14763950080 cpu:        41.3
 (Enter /cm/shared/gaussian/g09.e01/intel64-sandybridge/g09/l103.exe)

 GradGradGradGradGradGradGradGradGradGradGradGradGradGradGradGradGradGrad
 Berny optimization.
 Initialization pass.
 Trust Radius=3.00D-01 FncErr=1.00D-07 GrdErr=1.00D-07
 Number of steps in this run=      2 maximum allowed number of steps=      2.
 GradGradGradGradGradGradGradGradGradGradGradGradGradGradGradGradGradGrad

 Leave Link  103 at Thu May 17 17:45:37 2018, MaxMem= 14763950080 cpu:         5.2
 (Enter /cm/shared/gaussian/g09.e01/intel64-sandybridge/g09/l202.exe)
 Symmetry turned off by external request.
 Stoichiometry    BrH256O128(1-)
 Framework group  C1[X(BrH256O128)]
 Deg. of freedom  1149
 Full point group                 C1      NOp   1
                          Input orientation:                          
 ---------------------------------------------------------------------
 Center     Atomic      Atomic             Coordinates (Angstroms)
 Number     Number       Type             X           Y           Z
 ---------------------------------------------------------------------
      1         35           0       20.000000   20.000000   20.000000
      2          8           0       20.740000   17.150000   18.990000
      3          1           0       20.010000   16.690000   19.420000
      4          1           0       20.640000   18.060000   19.270000
      5          8           0       18.340000   18.850000   22.380000
      6          1           0       18.940000   19.110000   21.680000
      7          1           0       18.030000   19.680000   22.750000
      8          8           0       19.420000   23.060000   19.950000
      9          1           0       18.550000   23.270000   20.280000
     10          1           0       19.420000   22.100000   19.880000
     11          8           0       17.480000   19.040000   18.280000
     12          1           0       18.310000   19.300000   18.680000
     13          1           0       16.820000   19.310000   18.920000
     14          8           0       22.160000   21.930000   21.360000
     15          1           0       21.490000   21.280000   21.140000
     16          1           0       22.880000   21.420000   21.740000
     17          8           0       20.330000   20.440000   16.790000
     18          1           0       19.900000   19.740000   16.290000
     19          1           0       20.170000   20.220000   17.700000
     20          8           0       23.490000   19.500000   20.330000
     21          1           0       23.230000   19.380000   21.240000
     22          1           0       22.740000   19.190000   19.830000
     23          8           0       21.910000   22.860000   18.210000
     24          1           0       21.580000   22.540000   19.050000
     25          1           0       21.210000   22.650000   17.590000
     26          8           0       23.210000   20.160000   17.440000
     27          1           0       22.540000   19.500000   17.260000
     28          1           0       22.770000   20.810000   17.990000
     29          8           0       18.550000   16.240000   20.430000
     30          1           0       18.710000   15.560000   21.090000
     31          1           0       18.290000   17.010000   20.940000
     32          8           0       20.370000   23.080000   23.330000
     33          1           0       20.530000   22.800000   22.420000
     34          1           0       21.200000   23.470000   23.610000
     35          8           0       19.480000   23.460000   16.930000
     36          1           0       18.690000   23.000000   16.650000
     37          1           0       19.610000   23.180000   17.830000
     38          8           0       17.320000   21.830000   16.470000
     39          1           0       16.670000   21.260000   16.050000
     40          1           0       17.650000   21.310000   17.200000
     41          8           0       15.650000   19.460000   20.610000
     42          1           0       14.950000   19.350000   21.250000
     43          1           0       16.230000   20.110000   20.990000
     44          8           0       18.750000   18.190000   16.010000
     45          1           0       18.670000   17.710000   16.830000
     46          1           0       17.860000   18.470000   15.810000
     47          8           0       16.520000   22.370000   19.020000
     48          1           0       15.810000   22.200000   19.640000
     49          1           0       16.080000   22.450000   18.170000
     50          8           0       20.990000   25.150000   20.660000
     51          1           0       21.420000   25.170000   19.800000
     52          1           0       20.590000   24.280000   20.710000
     53          8           0       21.660000   16.520000   16.430000
     54          1           0       20.950000   15.950000   16.120000
     55          1           0       21.370000   16.810000   17.300000
     56          8           0       21.210000   20.610000   24.510000
     57          1           0       22.000000   20.620000   23.980000
     58          1           0       20.700000   21.350000   24.200000
     59          8           0       17.210000   20.890000   23.740000
     60          1           0       16.480000   20.470000   24.200000
     61          1           0       17.770000   21.220000   24.440000
     62          8           0       23.610000   15.850000   18.830000
     63          1           0       24.480000   16.140000   19.110000
     64          1           0       23.130000   16.660000   18.670000
     65          8           0       16.150000   17.430000   23.330000
     66          1           0       16.640000   17.950000   22.700000
     67          1           0       16.170000   17.940000   24.140000
     68          8           0       20.890000   21.990000   14.600000
     69          1           0       20.160000   22.600000   14.430000
     70          1           0       20.560000   21.420000   15.290000
     71          8           0       23.750000   18.390000   22.970000
     72          1           0       24.550000   18.170000   23.440000
     73          1           0       23.070000   17.850000   23.380000
     74          8           0       21.590000   17.630000   24.820000
     75          1           0       21.310000   18.550000   24.790000
     76          1           0       20.860000   17.150000   24.430000
     77          8           0       22.980000   15.410000   21.760000
     78          1           0       22.210000   15.230000   22.300000
     79          1           0       22.620000   15.600000   20.890000
     80          8           0       17.730000   23.630000   23.750000
     81          1           0       17.370000   22.770000   23.550000
     82          1           0       18.620000   23.460000   24.050000
     83          8           0       26.020000   19.390000   18.800000
     84          1           0       25.160000   19.510000   19.200000
     85          1           0       26.040000   20.040000   18.090000
     86          8           0       24.740000   22.780000   18.110000
     87          1           0       23.990000   23.190000   18.540000
     88          1           0       24.350000   22.290000   17.380000
     89          8           0       24.230000   20.950000   23.500000
     90          1           0       24.120000   20.010000   23.410000
     91          1           0       25.070000   21.060000   23.950000
     92          8           0       22.030000   25.650000   18.100000
     93          1           0       22.000000   24.720000   17.890000
     94          1           0       22.950000   25.880000   18.050000
     95          8           0       19.140000   21.200000   26.050000
     96          1           0       19.850000   20.840000   25.520000
     97          1           0       19.310000   20.880000   26.940000
     98          8           0       17.370000   14.490000   17.930000
     99          1           0       17.840000   14.970000   18.620000
    100          1           0       17.720000   13.600000   17.970000
    101          8           0       17.490000   25.020000   20.740000
    102          1           0       18.230000   25.620000   20.750000
    103          1           0       16.960000   25.300000   20.000000
    104          8           0       24.730000   23.210000   22.150000
    105          1           0       24.560000   22.480000   22.750000
    106          1           0       25.330000   22.850000   21.500000
    107          8           0       15.340000   23.720000   22.030000
    108          1           0       16.140000   24.120000   21.690000
    109          1           0       14.940000   24.400000   22.570000
    110          8           0       24.260000   19.840000   14.660000
    111          1           0       23.800000   20.060000   15.470000
    112          1           0       25.080000   20.340000   14.720000
    113          8           0       14.270000   20.600000   17.220000
    114          1           0       13.520000   20.130000   16.860000
    115          1           0       14.370000   20.260000   18.100000
    116          8           0       18.490000   18.540000   25.740000
    117          1           0       18.640000   19.480000   25.820000
    118          1           0       18.900000   18.160000   26.510000
    119          8           0       16.150000   19.100000   15.470000
    120          1           0       15.640000   18.350000   15.750000
    121          1           0       15.610000   19.860000   15.710000
    122          8           0       22.910000   24.680000   23.450000
    123          1           0       23.390000   24.200000   22.780000
    124          1           0       23.180000   25.590000   23.330000
    125          8           0       20.120000   14.630000   22.900000
    126          1           0       19.370000   14.570000   23.490000
    127          1           0       20.430000   13.730000   22.820000
    128          8           0       14.010000   22.070000   20.440000
    129          1           0       14.460000   22.640000   21.060000
    130          1           0       13.900000   21.240000   20.910000
    131          8           0       25.880000   16.930000   20.010000
    132          1           0       25.840000   17.810000   19.640000
    133          1           0       26.450000   17.020000   20.770000
    134          8           0       23.710000   23.290000   15.120000
    135          1           0       22.820000   22.970000   15.280000
    136          1           0       23.600000   24.040000   14.540000
    137          8           0       22.420000   13.400000   18.960000
    138          1           0       22.630000   14.330000   18.930000
    139          1           0       21.500000   13.350000   18.720000
    140          8           0       18.530000   25.030000   14.720000
    141          1           0       18.810000   24.630000   15.540000
    142          1           0       17.580000   25.160000   14.820000
    143          8           0       18.840000   26.030000   23.630000
    144          1           0       19.200000   25.890000   22.760000
    145          1           0       18.300000   25.250000   23.800000
    146          8           0       19.060000   27.270000   20.490000
    147          1           0       19.720000   26.630000   20.220000
    148          1           0       18.520000   27.390000   19.710000
    149          8           0       26.500000   22.540000   20.150000
    150          1           0       27.300000   22.010000   20.170000
    151          1           0       26.150000   22.410000   19.270000
    152          8           0       19.790000   17.630000   13.400000
    153          1           0       20.050000   16.790000   13.790000
    154          1           0       18.930000   17.800000   13.780000
    155          8           0       15.280000   14.690000   22.650000
    156          1           0       16.050000   14.130000   22.710000
    157          1           0       15.610000   15.580000   22.720000
    158          8           0       22.280000   23.900000   26.110000
    159          1           0       21.940000   23.960000   25.210000
    160          1           0       23.220000   24.020000   26.030000
    161          8           0       23.590000   17.220000   13.940000
    162          1           0       23.980000   18.040000   14.240000
    163          1           0       22.890000   17.040000   14.570000
    164          8           0       18.580000   27.090000   17.790000
    165          1           0       17.940000   27.490000   17.200000
    166          1           0       18.690000   26.200000   17.450000
    167          8           0       13.420000   17.190000   21.780000
    168          1           0       14.260000   16.830000   22.070000
    169          1           0       12.810000   16.980000   22.490000
    170          8           0       23.090000   26.750000   21.870000
    171          1           0       22.280000   26.260000   21.720000
    172          1           0       22.980000   27.550000   21.360000
    173          8           0       14.010000   23.290000   17.730000
    174          1           0       13.740000   22.390000   17.530000
    175          1           0       14.070000   23.310000   18.690000
    176          8           0       25.070000   25.350000   20.240000
    177          1           0       25.120000   24.610000   20.850000
    178          1           0       24.440000   25.950000   20.630000
    179          8           0       13.490000   20.320000   22.410000
    180          1           0       12.630000   20.740000   22.350000
    181          1           0       13.570000   20.060000   23.330000
    182          8           0       18.280000   14.680000   14.850000
    183          1           0       18.170000   14.760000   15.800000
    184          1           0       17.390000   14.700000   14.500000
    185          8           0       23.100000   15.720000   25.940000
    186          1           0       22.550000   16.310000   25.420000
    187          1           0       23.160000   16.140000   26.800000
    188          8           0       22.540000   21.170000   12.750000
    189          1           0       22.060000   21.620000   13.440000
    190          1           0       23.200000   20.650000   13.210000
    191          8           0       16.230000   23.040000   26.000000
    192          1           0       15.320000   23.040000   25.700000
    193          1           0       16.730000   23.410000   25.270000
    194          8           0       15.410000   25.510000   18.750000
    195          1           0       15.310000   26.410000   18.420000
    196          1           0       15.270000   24.960000   17.980000
    197          8           0       14.820000   20.340000   24.910000
    198          1           0       14.530000   21.190000   24.570000
    199          1           0       14.820000   20.450000   25.860000
    200          8           0       22.830000   14.220000   15.150000
    201          1           0       22.730000   15.030000   15.650000
    202          1           0       22.220000   14.310000   14.420000
    203          8           0       25.320000   14.000000   20.180000
    204          1           0       24.530000   14.320000   19.740000
    205          1           0       25.790000   14.790000   20.440000
    206          8           0       19.360000   23.740000   26.850000
    207          1           0       20.270000   23.720000   26.560000
[...]
   Z335      43.04796  -0.01991   0.00000  -0.01087  -0.01327  43.03469
   X336      30.55687  -0.00624   0.00000  -0.00673  -0.00706  30.54981
   Y336      22.54443  -0.00255   0.00000  -0.00224  -0.00312  22.54131
   Z336      42.61332  -0.00017   0.00000   0.00168  -0.00092  42.61240
   X337      32.31432   0.00349   0.00000   0.00587   0.00538  32.31970
   Y337      22.94128   0.00023   0.00000   0.00428   0.00312  22.94440
   Z337      44.82430   0.01599   0.00000   0.00924   0.00682  44.83112
   X338      41.63067   0.00752   0.00000   0.00488   0.00470  41.63537
   Y338      54.17845   0.00614   0.00000   0.01376   0.01344  54.19189
   Z338      38.66380  -0.00470   0.00000  -0.01156  -0.00927  38.65452
   X339      41.95192  -0.00269   0.00000  -0.00472  -0.00500  41.94692
   Y339      55.44456   0.00645   0.00000   0.00995   0.00946  55.45403
   Z339      39.92991   0.00096   0.00000  -0.00158   0.00088  39.93080
   X340      39.83543  -0.00854   0.00000  -0.00612  -0.00628  39.82915
   Y340      54.21624  -0.00227   0.00000  -0.00428  -0.00458  54.21166
   Z340      38.41813  -0.00048   0.00000  -0.00120   0.00096  38.41909
   X341      39.70315   0.00649   0.00000   0.00054   0.00093  39.70407
   Y341      53.83830   0.01336   0.00000   0.01141   0.01210  53.85040
   Z341      30.76474  -0.00180   0.00000  -0.00519  -0.00309  30.76165
   X342      39.24961  -0.00245   0.00000  -0.00074  -0.00026  39.24935
   Y342      52.62887  -0.00823   0.00000  -0.00812  -0.00726  52.62161
   Z342      29.49862  -0.00131   0.00000   0.00113   0.00304  29.50167
   X343      38.68269  -0.00446   0.00000  -0.00164  -0.00135  38.68134
   Y343      53.42256  -0.00869   0.00000  -0.01163  -0.01112  53.41143
   Z343      32.20093   0.00353   0.00000  -0.00126   0.00072  32.20165
   X344      38.73939   0.01108   0.00000   0.00251   0.00343  38.74282
   Y344      47.31874   0.00507   0.00000   0.00295   0.00456  47.32330
   Z344      23.65937  -0.00885   0.00000  -0.01412  -0.01293  23.64644
   X345      37.45437  -0.00646   0.00000  -0.00185  -0.00101  37.45336
   Y345      48.05574  -0.00069   0.00000  -0.00652  -0.00505  48.05068
   Z345      24.69872   0.01015   0.00000   0.01014   0.01133  24.71005
   X346      37.94570  -0.00652   0.00000  -0.00674  -0.00576  37.93994
   Y346      45.86365  -0.01129   0.00000  -0.01345  -0.01175  45.85190
   Z346      22.90348  -0.00024   0.00000   0.00248   0.00343  22.90691
   X347      34.77096  -0.01332   0.00000  -0.00552  -0.00654  34.76442
   Y347      28.78053  -0.01670   0.00000  -0.00905  -0.01111  28.76942
   Z347      51.96747  -0.00736   0.00000  -0.00447  -0.00596  51.96151
   X348      33.44815   0.00100   0.00000   0.00325   0.00219  33.45034
   Y348      29.93326   0.00395   0.00000   0.00435   0.00222  29.93548
   Z348      52.43990   0.00104   0.00000   0.00120  -0.00024  52.43966
   X349      36.30164   0.01250   0.00000   0.00577   0.00472  36.30636
   Y349      29.68760   0.01440   0.00000   0.01391   0.01181  29.69940
   Z349      52.26982   0.00151   0.00000  -0.00099  -0.00225  52.26758
   X350      33.63713  -0.00297   0.00000   0.00026   0.00025  33.63738
   Y350      20.50353  -0.00471   0.00000  -0.00035  -0.00064  20.50289
   Z350      38.19137  -0.01643   0.00000  -0.01089  -0.01353  38.17783
   X351      33.27808   0.00098   0.00000   0.00275   0.00265  33.28072
   Y351      21.78854   0.00612   0.00000   0.00214   0.00169  21.79023
   Z351      39.41969   0.00881   0.00000   0.00720   0.00470  39.42439
   X352      35.22450   0.00528   0.00000   0.00302   0.00298  35.22747
   Y352      19.80433  -0.00120   0.00000  -0.00038  -0.00073  19.80360
   Z352      38.72049   0.00454   0.00000   0.00602   0.00340  38.72389
   X353      28.74273  -0.00940   0.00000  -0.00715  -0.00664  28.73609
   Y353      51.13599   0.01787   0.00000   0.01345   0.01429  51.15028
   Z353      29.23406   0.00866   0.00000   0.01457   0.01554  29.24960
   X354      29.12068   0.00391   0.00000   0.00133   0.00184  29.12252
   Y354      49.35965  -0.01233   0.00000  -0.00478  -0.00394  49.35571
   Z354      29.29076  -0.00613   0.00000  -0.01200  -0.01124  29.27952
   X355      30.36790   0.00561   0.00000   0.00455   0.00505  30.37295
   Y355      51.92967   0.00208   0.00000   0.00237   0.00322  51.93289
   Z355      29.29076  -0.00319   0.00000  -0.00662  -0.00543  29.28532
   X356      35.96149   0.00556   0.00000   0.00387   0.00344  35.96493
   Y356      55.44456   0.02288   0.00000   0.01854   0.01776  55.46232
   Z356      42.08420   0.01173   0.00000   0.00451   0.00655  42.09075
   X357      36.15046  -0.00111   0.00000  -0.00160  -0.00192  36.14854
   Y357      54.23514  -0.01692   0.00000  -0.01215  -0.01276  54.22238
   Z357      40.76139  -0.00783   0.00000   0.00051   0.00240  40.76380
   X358      34.63868  -0.00435   0.00000  -0.00078  -0.00127  34.63741
   Y358      54.78316  -0.00597   0.00000  -0.00406  -0.00499  54.77817
   Z358      43.12355   0.00183   0.00000  -0.00071   0.00115  43.12470
   X359      22.37436   0.00646   0.00000  -0.00496  -0.00538  22.36898
   Y359      42.32987  -0.00990   0.00000  -0.00318  -0.00411  42.32576
   Z359      42.70781   0.01216   0.00000   0.01319   0.01256  42.72037
   X360      20.97596  -0.01402   0.00000  -0.01041  -0.01076  20.96520
   Y360      41.83854  -0.00019   0.00000   0.00344   0.00264  41.84118
   Z360      41.68736  -0.01349   0.00000  -0.01333  -0.01412  41.67324
   X361      22.20428  -0.00315   0.00000  -0.00240  -0.00284  22.20144
   Y361      44.10621   0.01716   0.00000   0.01504   0.01409  44.12030
   Z361      42.87789  -0.00457   0.00000  -0.00847  -0.00888  42.86901
   X362      47.65889   0.00108   0.00000   0.00139   0.00032  47.65921
   Y362      36.07487  -0.02169   0.00000  -0.01273  -0.01478  36.06010
   Z362      52.23203  -0.00270   0.00000  -0.00820  -0.00783  52.22420
   X363      49.45413   0.00281   0.00000   0.00250   0.00143  49.45556
   Y363      36.33943   0.00419   0.00000   0.00571   0.00367  36.34310
   Z363      52.21313   0.00298   0.00000   0.00531   0.00584  52.21897
   X364      46.94080  -0.00055   0.00000   0.00533   0.00427  46.94506
   Y364      37.71893   0.01604   0.00000   0.01054   0.00852  37.72745
   Z364      52.02416  -0.00746   0.00000  -0.01119  -0.01065  52.01351
   X365      49.88877   0.00298   0.00000   0.00110   0.00193  49.89070
   Y365      30.29231  -0.00439   0.00000  -0.00557  -0.00420  30.28811
   Z365      25.85145  -0.01147   0.00000  -0.00558  -0.00580  25.84566
   X366      51.09819   0.00517   0.00000   0.00121   0.00195  51.10014
   Y366      30.65136   0.00264   0.00000   0.00148   0.00269  30.65405
   Z366      27.13647   0.00979   0.00000   0.00867   0.00859  27.14506
   X367      48.28250  -0.01197   0.00000  -0.01146  -0.01069  48.27182
   Y367      30.59467   0.00262   0.00000   0.00177   0.00303  30.59770
   Z367      26.64514  -0.00027   0.00000  -0.00597  -0.00626  26.63888
   X368      35.20560  -0.01049   0.00000  -0.00734  -0.00840  35.19720
   Y368      49.94546  -0.00743   0.00000   0.00168  -0.00030  49.94516
   Z368      51.30606   0.01318   0.00000   0.00780   0.00908  51.31514
   X369      35.88590   0.00839   0.00000   0.00764   0.00665  35.89255
   Y369      51.17378   0.01057   0.00000   0.00748   0.00565  51.17943
   Z369      50.17223  -0.01064   0.00000  -0.00741  -0.00592  50.16630
   X370      36.20715  -0.00552   0.00000  -0.01068  -0.01172  36.19544
   Y370      48.45258  -0.00229   0.00000  -0.00183  -0.00376  48.44881
   Z370      50.98481   0.00133   0.00000   0.00265   0.00380  50.98861
   X371      43.50150  -0.00690   0.00000  -0.00966  -0.00912  43.49237
   Y371      22.14759  -0.02268   0.00000  -0.01697  -0.01622  22.13137
   Z371      30.50018  -0.00128   0.00000   0.00216   0.00043  30.50061
   X372      43.14245   0.00163   0.00000   0.00323   0.00364  43.14609
   Y372      22.20428   0.00636   0.00000   0.00840   0.00891  22.21319
   Z372      32.27652   0.00702   0.00000   0.00888   0.00714  32.28367
   X373      43.86054  -0.00056   0.00000  -0.00541  -0.00485  43.85570
   Y373      23.86724   0.01555   0.00000   0.00514   0.00595  23.87319
   Z373      30.04665  -0.00343   0.00000  -0.00191  -0.00339  30.04326
   X374      44.99438   0.00726   0.00000   0.00386   0.00400  44.99838
   Y374      54.17845   0.01103   0.00000   0.00769   0.00796  54.18641
   Z374      34.22294  -0.00037   0.00000  -0.00228   0.00024  34.22318
   X375      43.91724  -0.00961   0.00000  -0.01041  -0.01037  43.90686
   Y375      53.93278   0.00031   0.00000   0.00291   0.00299  53.93577
   Z375      35.65913   0.00528   0.00000  -0.00017   0.00224  35.66137
   X376      44.74871  -0.00149   0.00000  -0.00063  -0.00041  44.74831
   Y376      52.70446  -0.00656   0.00000  -0.00282  -0.00242  52.70204
   Z376      33.20249  -0.00498   0.00000  -0.00500  -0.00268  33.19980
   X377      49.09508   0.01626   0.00000   0.01108   0.01102  49.10610
   Y377      52.42100   0.01099   0.00000   0.01119   0.01111  52.43211
   Z377      37.05753   0.01381   0.00000   0.00711   0.00970  37.06722
   X378      49.07619   0.00154   0.00000   0.00400   0.00394  49.08013
   Y378      50.62576  -0.00686   0.00000  -0.00092  -0.00103  50.62473
   Z378      37.26540   0.00061   0.00000  -0.00081   0.00154  37.26694
   X379      47.71558  -0.01025   0.00000  -0.00148  -0.00146  47.71413
   Y379      52.76115   0.00697   0.00000   0.00968   0.00974  52.77089
   Z379      35.94259  -0.01373   0.00000  -0.01261  -0.01008  35.93251
   X380      23.05466  -0.00685   0.00000  -0.00276  -0.00360  23.05106
   Y380      35.13001  -0.00184   0.00000   0.00279   0.00106  35.13107
   Z380      48.94391  -0.00324   0.00000  -0.00080  -0.00231  48.94160
   X381      24.69872   0.00775   0.00000   0.00654   0.00572  24.70444
   Y381      35.84810   0.00284   0.00000   0.00274   0.00105  35.84916
   Z381      48.69824  -0.00192   0.00000  -0.00177  -0.00307  48.69518
   X382      22.96017   0.00040   0.00000   0.00117   0.00021  22.96038
   Y382      34.86545  -0.00042   0.00000   0.00079  -0.00117  34.86428
   Z382      50.73915   0.00253   0.00000   0.00234   0.00079  50.73994
   X383      43.74716   0.01464   0.00000   0.01005   0.01091  43.75807
   Y383      47.20536   0.00477   0.00000   0.00273   0.00424  47.20960
   Z383      24.56644   0.01104   0.00000   0.00447   0.00601  24.57245
   X384      42.08420  -0.01880   0.00000  -0.01506  -0.01416  42.07004
   Y384      46.99749   0.00182   0.00000   0.00454   0.00613  47.00362
   Z384      23.86724   0.00160   0.00000   0.00953   0.01091  23.87815
   X385      44.86210   0.00635   0.00000   0.00628   0.00723  44.86933
   Y385      46.95969  -0.00352   0.00000  -0.00644  -0.00475  46.95495
   Z385      23.16804  -0.00533   0.00000  -0.00551  -0.00393  23.16411
         Item               Value     Threshold  Converged?
 Maximum Force            0.031918     0.000450     NO 
 RMS     Force            0.010403     0.000300     NO 
 Maximum Displacement     0.031601     0.001800     NO 
 RMS     Displacement     0.008772     0.001200     NO 
 Predicted change in Energy=-7.242424D-02
 GradGradGradGradGradGradGradGradGradGradGradGradGradGradGradGradGradGrad

 Leave Link  103 at Thu May 17 20:34:08 2018, MaxMem= 14763950080 cpu:      3089.7
 (Enter /cm/shared/gaussian/g09.e01/intel64-sandybridge/g09/l9999.exe)
 1\1\GINC-POPLE04\Force\RPBE1PBE\CC-pVDZ\Br1H256O128(1-)\M.PELUSO\17-Ma
 y-2018\0\\#p PBE1PBE/cc-pvDZ force Counterpoise=2 noSymm\\forces on ch
 loride comput - NWATER: 128\\-1,1\Br,20.,20.,20.\O,20.74,17.15,18.99\H
 ,20.01,16.69,19.42\H,20.64,18.06,19.27\O,18.34,18.85,22.38\H,18.94,19.
 11,21.68\H,18.03,19.68,22.75\O,19.42,23.06,19.95\H,18.55,23.27,20.28\H
 ,19.42,22.1,19.88\O,17.48,19.04,18.28\H,18.31,19.3,18.68\H,16.82,19.31
 ,18.92\O,22.16,21.93,21.36\H,21.49,21.28,21.14\H,22.88,21.42,21.74\O,2
 0.33,20.44,16.79\H,19.9,19.74,16.29\H,20.17,20.22,17.7\O,23.49,19.5,20
 .33\H,23.23,19.38,21.24\H,22.74,19.19,19.83\O,21.91,22.86,18.21\H,21.5
 8,22.54,19.05\H,21.21,22.65,17.59\O,23.21,20.16,17.44\H,22.54,19.5,17.
 26\H,22.77,20.81,17.99\O,18.55,16.24,20.43\H,18.71,15.56,21.09\H,18.29
 ,17.01,20.94\O,20.37,23.08,23.33\H,20.53,22.8,22.42\H,21.2,23.47,23.61
 \O,19.48,23.46,16.93\H,18.69,23.,16.65\H,19.61,23.18,17.83\O,17.32,21.
 83,16.47\H,16.67,21.26,16.05\H,17.65,21.31,17.2\O,15.65,19.46,20.61\H,
 14.95,19.35,21.25\H,16.23,20.11,20.99\O,18.75,18.19,16.01\H,18.67,17.7
 1,16.83\H,17.86,18.47,15.81\O,16.52,22.37,19.02\H,15.81,22.2,19.64\H,1
 6.08,22.45,18.17\O,20.99,25.15,20.66\H,21.42,25.17,19.8\H,20.59,24.28,
 20.71\O,21.66,16.52,16.43\H,20.95,15.95,16.12\H,21.37,16.81,17.3\O,21.
 21,20.61,24.51\H,22.,20.62,23.98\H,20.7,21.35,24.2\O,17.21,20.89,23.74
 \H,16.48,20.47,24.2\H,17.77,21.22,24.44\O,23.61,15.85,18.83\H,24.48,16
 .14,19.11\H,23.13,16.66,18.67\O,16.15,17.43,23.33\H,16.64,17.95,22.7\H
 ,16.17,17.94,24.14\O,20.89,21.99,14.6\H,20.16,22.6,14.43\H,20.56,21.42
 ,15.29\O,23.75,18.39,22.97\H,24.55,18.17,23.44\H,23.07,17.85,23.38\O,2
 1.59,17.63,24.82\H,21.31,18.55,24.79\H,20.86,17.15,24.43\O,22.98,15.41
 ,21.76\H,22.21,15.23,22.3\H,22.62,15.6,20.89\O,17.73,23.63,23.75\H,17.
 37,22.77,23.55\H,18.62,23.46,24.05\O,26.02,19.39,18.8\H,25.16,19.51,19
 .2\H,26.04,20.04,18.09\O,24.74,22.78,18.11\H,23.99,23.19,18.54\H,24.35
 ,22.29,17.38\O,24.23,20.95,23.5\H,24.12,20.01,23.41\H,25.07,21.06,23.9
 5\O,22.03,25.65,18.1\H,22.,24.72,17.89\H,22.95,25.88,18.05\O,19.14,21.
 2,26.05\H,19.85,20.84,25.52\H,19.31,20.88,26.94\O,17.37,14.49,17.93\H,
 17.84,14.97,18.62\H,17.72,13.6,17.97\O,17.49,25.02,20.74\H,18.23,25.62
 ,20.75\H,16.96,25.3,20.\O,24.73,23.21,22.15\H,24.56,22.48,22.75\H,25.3
 3,22.85,21.5\O,15.34,23.72,22.03\H,16.14,24.12,21.69\H,14.94,24.4,22.5
 7\O,24.26,19.84,14.66\H,23.8,20.06,15.47\H,25.08,20.34,14.72\O,14.27,2
 0.6,17.22\H,13.52,20.13,16.86\H,14.37,20.26,18.1\O,18.49,18.54,25.74\H
 ,18.64,19.48,25.82\H,18.9,18.16,26.51\O,16.15,19.1,15.47\H,15.64,18.35
 ,15.75\H,15.61,19.86,15.71\O,22.91,24.68,23.45\H,23.39,24.2,22.78\H,23
 .18,25.59,23.33\O,20.12,14.63,22.9\H,19.37,14.57,23.49\H,20.43,13.73,2
 2.82\O,14.01,22.07,20.44\H,14.46,22.64,21.06\H,13.9,21.24,20.91\O,25.8
 8,16.93,20.01\H,25.84,17.81,19.64\H,26.45,17.02,20.77\O,23.71,23.29,15
 .12\H,22.82,22.97,15.28\H,23.6,24.04,14.54\O,22.42,13.4,18.96\H,22.63,
 14.33,18.93\H,21.5,13.35,18.72\O,18.53,25.03,14.72\H,18.81,24.63,15.54
 \H,17.58,25.16,14.82\O,18.84,26.03,23.63\H,19.2,25.89,22.76\H,18.3,25.
 25,23.8\O,19.06,27.27,20.49\H,19.72,26.63,20.22\H,18.52,27.39,19.71\O,
 26.5,22.54,20.15\H,27.3,22.01,20.17\H,26.15,22.41,19.27\O,19.79,17.63,
 13.4\H,20.05,16.79,13.79\H,18.93,17.8,13.78\O,15.28,14.69,22.65\H,16.0
 5,14.13,22.71\H,15.61,15.58,22.72\O,22.28,23.9,26.11\H,21.94,23.96,25.
 21\H,23.22,24.02,26.03\O,23.59,17.22,13.94\H,23.98,18.04,14.24\H,22.89
 ,17.04,14.57\O,18.58,27.09,17.79\H,17.94,27.49,17.2\H,18.69,26.2,17.45
 \O,13.42,17.19,21.78\H,14.26,16.83,22.07\H,12.81,16.98,22.49\O,23.09,2
 6.75,21.87\H,22.28,26.26,21.72\H,22.98,27.55,21.36\O,14.01,23.29,17.73
 \H,13.74,22.39,17.53\H,14.07,23.31,18.69\O,25.07,25.35,20.24\H,25.12,2
 4.61,20.85\H,24.44,25.95,20.63\O,13.49,20.32,22.41\H,12.63,20.74,22.35
 \H,13.57,20.06,23.33\O,18.28,14.68,14.85\H,18.17,14.76,15.8\H,17.39,14
 .7,14.5\O,23.1,15.72,25.94\H,22.55,16.31,25.42\H,23.16,16.14,26.8\O,22
 .54,21.17,12.75\H,22.06,21.62,13.44\H,23.2,20.65,13.21\O,16.23,23.04,2
 6.\H,15.32,23.04,25.7\H,16.73,23.41,25.27\O,15.41,25.51,18.75\H,15.31,
 26.41,18.42\H,15.27,24.96,17.98\O,14.82,20.34,24.91\H,14.53,21.19,24.5
 7\H,14.82,20.45,25.86\O,22.83,14.22,15.15\H,22.73,15.03,15.65\H,22.22,
 14.31,14.42\O,25.32,14.,20.18\H,24.53,14.32,19.74\H,25.79,14.79,20.44\
 O,19.36,23.74,26.85\H,20.27,23.72,26.56\H,19.04,22.85,26.7\O,15.89,24.
 52,15.56\H,16.22,23.82,14.99\H,15.21,24.1,16.09\O,20.31,13.43,16.72\H,
 19.45,13.01,16.8\H,20.8,12.86,16.11\O,13.9,22.78,24.64\H,13.06,23.18,2
 4.42\H,14.42,22.86,23.84\O,17.75,14.76,24.68\H,18.11,14.77,25.57\H,16.
 81,14.87,24.8\O,11.81,18.63,20.02\H,12.7,18.75,20.34\H,11.57,17.75,20.
 31\O,28.23,20.66,19.94\H,27.48,20.13,19.67\H,28.79,20.05,20.42\O,20.33
 ,19.76,11.77\H,21.01,20.28,12.19\H,20.01,19.17,12.46\O,25.13,13.87,22.
 94\H,24.62,14.68,22.86\H,25.44,13.71,22.05\O,15.47,14.6,15.74\H,15.06,
 13.75,15.56\H,16.01,14.43,16.51\O,16.57,22.85,13.41\H,16.1,22.02,13.4\
 H,17.46,22.62,13.14\O,20.43,17.3,27.65\H,21.32,17.16,27.98\H,20.34,18.
 25,27.59\O,26.07,18.33,24.63\H,25.87,18.61,25.52\H,26.84,18.83,24.38\O
 ,26.76,24.29,23.63\H,27.24,24.44,22.81\H,26.,23.77,23.38\O,24.68,26.08
 ,17.38\H,25.28,25.54,17.9\H,25.03,26.04,16.49\O,26.48,23.8,15.44\H,25.
 56,23.57,15.56\H,26.77,24.07,16.31\O,15.37,19.61,12.68\H,14.53,19.81,1
 2.26\H,15.28,19.97,13.56\O,14.55,13.14,18.78\H,14.02,13.79,19.26\H,15.
 4,13.56,18.68\O,11.35,22.59,19.41\H,12.24,22.37,19.7\H,11.17,23.43,19.
 83\O,14.08,21.46,14.47\H,13.43,21.99,14.01\H,13.57,21.,15.14\O,14.83,2
 6.33,23.42\H,14.96,27.05,24.03\H,15.69,26.2,23.02\O,27.19,24.64,18.15\
 H,27.96,24.08,18.\H,26.83,24.33,18.98\O,26.75,21.53,24.31\H,27.24,21.8
 5,25.07\H,27.29,20.83,23.95\O,20.62,14.87,13.39\H,20.2,14.37,14.09\H,1
 9.97,14.89,12.69\O,14.15,16.78,15.05\H,14.65,16.71,14.23\H,14.4,16.,15
 .54\O,22.31,22.05,28.07\H,23.18,21.69,27.92\H,22.22,22.74,27.42\O,12.7
 6,18.98,15.68\H,13.34,18.25,15.46\H,12.24,19.12,14.88\O,12.66,14.93,20
 .01\H,12.9,15.65,20.58\H,12.2,15.34,19.28\O,27.53,16.96,22.12\H,27.23,
 16.22,22.65\H,28.48,16.87,22.11\O,28.4,17.11,18.86\H,27.71,16.67,19.37
 \H,28.93,17.56,19.52\O,28.28,19.12,23.51\H,29.17,19.19,23.16\H,27.82,1
 8.56,22.89\O,27.22,21.13,15.65\H,27.42,22.05,15.82\H,28.06,20.76,15.38
 \O,19.36,22.66,11.48\H,19.84,21.85,11.64\H,19.53,22.86,10.56\O,16.85,2
 1.39,28.38\H,16.55,21.87,29.15\H,16.63,21.97,27.64\O,18.36,11.89,17.53
 \H,18.14,11.32,18.26\H,18.12,11.38,16.75\O,19.77,27.87,25.15\H,19.66,2
 8.78,24.9\H,19.32,27.38,24.45\O,23.29,11.05,20.3\H,24.03,10.76,19.77\H
 ,23.06,11.9,19.93\O,19.56,20.34,28.66\H,19.94,20.85,29.37\H,18.62,20.5
 3,28.69\O,24.94,21.89,27.09\H,25.41,22.14,27.89\H,25.26,22.51,26.43\O,
 11.76,16.24,17.6\H,10.99,16.68,17.98\H,12.32,16.96,17.3\O,13.52,26.62,
 21.11\H,13.68,26.49,22.05\H,14.4,26.65,20.73\O,25.08,24.42,25.84\H,25.
 63,24.34,25.06\H,25.16,25.34,26.1\O,25.91,15.4,25.55\H,25.9,16.31,25.2
 7\H,25.,15.22,25.8\O,17.04,12.27,22.78\H,16.17,11.93,22.55\H,17.1,12.1
 4,23.72\O,22.03,28.67,20.46\H,22.2,29.34,21.13\H,21.08,28.69,20.33\O,2
 1.01,28.49,16.28\H,20.77,27.85,15.61\H,20.47,28.27,17.04\O,20.5,25.04,
 12.52\H,19.82,25.43,13.07\H,20.08,24.27,12.12\O,18.4,15.23,27.5\H,17.7
 ,15.84,27.75\H,19.21,15.71,27.66\O,17.8,10.85,20.21\H,17.61,11.53,20.8
 6\H,18.64,10.48,20.49\O,15.21,27.06,15.47\H,15.41,26.12,15.5\H,16.07,2
 7.48,15.5\O,19.03,29.34,22.27\H,19.13,28.7,21.57\H,18.33,28.99,22.82\O
 ,11.84,22.4,22.6\H,11.1,22.14,22.06\H,11.75,23.34,22.69\O,25.22,19.09,
 27.64\H,26.17,19.23,27.63\H,24.84,19.96,27.53\O,26.4,16.03,13.68\H,27.
 04,16.22,14.36\H,25.55,16.19,14.1\O,18.63,26.43,27.15\H,18.99,27.08,26
 .55\H,19.16,25.64,26.98\O,23.02,11.72,16.14\H,22.83,11.75,17.08\H,23.2
 1,12.63,15.9\O,23.81,28.67,18.11\H,23.24,28.54,18.87\H,23.68,27.89,17.
 57\O,25.98,27.74,19.61\H,25.97,26.79,19.72\H,25.25,27.92,19.02\O,12.2,
 18.59,25.9\H,13.07,18.97,25.77\H,12.15,18.45,26.85\O,23.15,24.98,13.\H
 ,22.27,24.87,12.63\H,23.74,24.85,12.26\\Version=ES64L-G09RevE.01\HF=-9
 773.4377687\RMSD=2.177e-09\RMSF=1.040e-02\Dipole=-9.3915623,-1.0727284
 ,10.4962588\Quadrupole=-527.3139245,-269.196365,796.5102896,-1838.8986
 15,-1309.1145496,-1115.0915138\PG=C01 [X(Br1H256O128)]\\@


 THE BEST WAY TO CONVINCE A FOOL THAT HE IS WRONG 
 IS TO LET HIM HAVE HIS OWN WAY.

                                         JOSH BILLINGS
 Job cpu time:       7 days  8 hours 36 minutes 47.7 seconds.
 File lengths (MBytes):  RWF=   7285 Int=      0 D2E=      0 Chk=   2411 Scr=      1
 Normal termination of Gaussian 09 at Thu May 17 20:34:32 2018.
