 Entering Gaussian System, Link 0=/cm/shared/gaussian/g09.e01/intel64-sandybridge/g09/g09
 Initial command:
 /cm/shared/gaussian/g09.e01/intel64-sandybridge/g09/l1.exe "/local/scratch/m.peluso/128_wat/Gau-29420.inp" -scrdir="/local/scratch/m.peluso/128_wat/"
 Entering Link 1 = /cm/shared/gaussian/g09.e01/intel64-sandybridge/g09/l1.exe PID=     29421.
  
 Copyright (c) 1988,1990,1992,1993,1995,1998,2003,2009,2015,
            Gaussian, Inc.  All Rights Reserved.
  
 This is part of the Gaussian(R) 09 program.  It is based on
 the Gaussian(R) 03 system (copyright 2003, Gaussian, Inc.),
 the Gaussian(R) 98 system (copyright 1998, Gaussian, Inc.),
 the Gaussian(R) 94 system (copyright 1995, Gaussian, Inc.),
 the Gaussian 92(TM) system (copyright 1992, Gaussian, Inc.),
 the Gaussian 90(TM) system (copyright 1990, Gaussian, Inc.),
 the Gaussian 88(TM) system (copyright 1988, Gaussian, Inc.),
 the Gaussian 86(TM) system (copyright 1986, Carnegie Mellon
 University), and the Gaussian 82(TM) system (copyright 1983,
 Carnegie Mellon University). Gaussian is a federally registered
 trademark of Gaussian, Inc.
  
 This software contains proprietary and confidential information,
 including trade secrets, belonging to Gaussian, Inc.
  
 This software is provided under written license and may be
 used, copied, transmitted, or stored only in accord with that
 written license.
  
 The following legend is applicable only to US Government
 contracts under FAR:
  
                    RESTRICTED RIGHTS LEGEND
  
 Use, reproduction and disclosure by the US Government is
 subject to restrictions as set forth in subparagraphs (a)
 and (c) of the Commercial Computer Software - Restricted
 Rights clause in FAR 52.227-19.
  
 Gaussian, Inc.
 340 Quinnipiac St., Bldg. 40, Wallingford CT 06492
  
  
 ---------------------------------------------------------------
 Warning -- This program may not be used in any manner that
 competes with the business of Gaussian, Inc. or will provide
 assistance to any competitor of Gaussian, Inc.  The licensee
 of this program is prohibited from giving any competitor of
 Gaussian, Inc. access to this program.  By using this program,
 the user acknowledges that Gaussian, Inc. is engaged in the
 business of creating and licensing software in the field of
 computational chemistry and represents and warrants to the
 licensee that it is not a competitor of Gaussian, Inc. and that
 it will not use this program in any manner prohibited above.
 ---------------------------------------------------------------
  

 Cite this work as:
 Gaussian 09, Revision E.01,
 M. J. Frisch, G. W. Trucks, H. B. Schlegel, G. E. Scuseria, 
 M. A. Robb, J. R. Cheeseman, G. Scalmani, V. Barone, B. Mennucci, 
 G. A. Petersson, H. Nakatsuji, M. Caricato, X. Li, H. P. Hratchian, 
 A. F. Izmaylov, J. Bloino, G. Zheng, J. L. Sonnenberg, M. Hada, 
 M. Ehara, K. Toyota, R. Fukuda, J. Hasegawa, M. Ishida, T. Nakajima, 
 Y. Honda, O. Kitao, H. Nakai, T. Vreven, J. A. Montgomery, Jr., 
 J. E. Peralta, F. Ogliaro, M. Bearpark, J. J. Heyd, E. Brothers, 
 K. N. Kudin, V. N. Staroverov, T. Keith, R. Kobayashi, J. Normand, 
 K. Raghavachari, A. Rendell, J. C. Burant, S. S. Iyengar, J. Tomasi, 
 M. Cossi, N. Rega, J. M. Millam, M. Klene, J. E. Knox, J. B. Cross, 
 V. Bakken, C. Adamo, J. Jaramillo, R. Gomperts, R. E. Stratmann, 
 O. Yazyev, A. J. Austin, R. Cammi, C. Pomelli, J. W. Ochterski, 
 R. L. Martin, K. Morokuma, V. G. Zakrzewski, G. A. Voth, 
 P. Salvador, J. J. Dannenberg, S. Dapprich, A. D. Daniels, 
 O. Farkas, J. B. Foresman, J. V. Ortiz, J. Cioslowski, 
 and D. J. Fox, Gaussian, Inc., Wallingford CT, 2013.
 
 ******************************************
 Gaussian 09:  ES64L-G09RevE.01 30-Nov-2015
                 5-May-2018 
 ******************************************
 %Mem=110GB
 %NProcShared=64
 Will use up to   64 processors via shared memory.
 %chk=snap91.chk
 ----------------------------------------------
 #p PBE1PBE/cc-pvDZ force Counterpoise=2 noSymm
 ----------------------------------------------
 1/10=7,30=1,38=1,62=2/1,3;
 2/12=2,15=1,17=6,18=5,40=1/2;
 1/10=7,30=1,38=1,53=2,62=2,63=101/22;
 3/5=16,11=2,16=1,25=1,30=1,71=1,74=-13/1,2,3;
 4//1;
 5/5=2,38=5/2;
 6/7=2,8=2,9=2,10=2,28=1/1;
 7/7=1,29=1,30=1,33=-1/1,2,3,16;
 1/10=7,30=1,53=2,62=2,63=101/22;
 3/5=7,6=11,11=2,16=1,25=1,30=1,71=1,74=-13,82=7/1,2,3;
 4//1;
 5/5=2,38=5/2;
 6/7=2,8=2,9=2,10=2,28=1/1;
 7/7=1,29=1,30=1,33=-1/1,2,3,16;
 1/10=7,30=1,53=2,62=2,63=101/22(-5);
 7/9=1,29=1,44=-1/16;
 1/10=7,30=1,62=2/3;
 99//99;
 Leave Link    1 at Sat May  5 18:59:02 2018, MaxMem= 14763950080 cpu:         6.1
 (Enter /cm/shared/gaussian/g09.e01/intel64-sandybridge/g09/l101.exe)
 ---------------------------------------
 forces on chloride comput - NWATER: 128
 ---------------------------------------
 Symbolic Z-matrix:
 Charge = -1 Multiplicity = 1 in supermolecule
 Charge = -1 Multiplicity = 1 in fragment      1.
 Charge =  0 Multiplicity = 1 in fragment      2.
 Br(Fragment=1)        20.       20.       20. 
 O(Fragment=2)         22.61     20.97     18.51 
 H(Fragment=2)         22.24     21.65     17.95 
 H(Fragment=2)         21.86     20.46     18.81 
 O(Fragment=2)         21.94     17.74     21.31 
 H(Fragment=2)         22.72     18.19     20.98 
 H(Fragment=2)         21.2      18.23     20.95 
 O(Fragment=2)         18.21     18.65     17.53 
 H(Fragment=2)         18.66     19.03     18.28 
 H(Fragment=2)         18.71     17.86     17.32 
 O(Fragment=2)         22.42     21.21     21.76 
 H(Fragment=2)         21.71     21.74     22.13 
 H(Fragment=2)         21.99     20.56     21.21 
 O(Fragment=2)         17.95     22.25     21.21 
 H(Fragment=2)         18.72     22.78     21.02 
 H(Fragment=2)         18.25     21.35     21.08 
 O(Fragment=2)         18.15     19.66     22.92 
 H(Fragment=2)         18.82     19.77     22.24 
 H(Fragment=2)         17.71     20.51     22.96 
 O(Fragment=2)         17.67     21.78     18. 
 H(Fragment=2)         18.32     21.66     18.69 
 H(Fragment=2)         18.04     21.33     17.24 
 O(Fragment=2)         15.97     19.66     19.66 
 H(Fragment=2)         16.66     19.29     19.11 
 H(Fragment=2)         15.2      19.66     19.1 
 O(Fragment=2)         19.93     23.87     19.26 
 H(Fragment=2)         19.86     24.61     19.87 
 H(Fragment=2)         20.76     23.45     19.51 
 O(Fragment=2)         19.28     16.43     20.52 
 H(Fragment=2)         18.42     16.57     20.9 
 H(Fragment=2)         19.89     16.55     21.24 
 O(Fragment=2)         20.35     16.67     18.03 
 H(Fragment=2)         20.91     15.92     17.82 
 H(Fragment=2)         20.       16.47     18.9 
 O(Fragment=2)         24.18     19.24     19.91 
 H(Fragment=2)         23.73     19.75     19.23 
 H(Fragment=2)         24.98     19.73     20.08 
 O(Fragment=2)         21.03     22.75     17.01 
 H(Fragment=2)         20.21     22.98     17.45 
 H(Fragment=2)         20.75     22.31     16.21 
 O(Fragment=2)         17.62     16.92     22.69 
 H(Fragment=2)         17.53     17.88     22.66 
 H(Fragment=2)         17.78     16.73     23.61 
 O(Fragment=2)         20.49     23.05     22.88 
 H(Fragment=2)         20.95     23.88     22.78 
 H(Fragment=2)         20.31     22.99     23.82 
 O(Fragment=2)         20.93     20.51     15.41 
 H(Fragment=2)         20.99     19.59     15.69 
 H(Fragment=2)         21.29     20.51     14.52 
 O(Fragment=2)         23.37     16.79     18.54 
 H(Fragment=2)         22.61     16.97     17.98 
 H(Fragment=2)         23.73     17.66     18.73 
 O(Fragment=2)         23.88     19.3      23.74 
 H(Fragment=2)         23.4      19.71     23.02 
 H(Fragment=2)         24.61     19.91     23.91 
 O(Fragment=2)         21.08     17.81     15.42 
 H(Fragment=2)         20.52     17.48     16.13 
 H(Fragment=2)         21.88     17.28     15.49 
 O(Fragment=2)         21.89     15.02     21.23 
 H(Fragment=2)         21.87     15.97     21.39 
 H(Fragment=2)         22.06     14.94     20.29 
 O(Fragment=2)         17.64     19.94     15.06 
 H(Fragment=2)         17.9      19.51     15.87 
 H(Fragment=2)         18.43     19.95     14.52 
 O(Fragment=2)         15.18     20.88     21.82 
 H(Fragment=2)         16.       21.28     22.11 
 H(Fragment=2)         15.4      20.45     20.99 
 O(Fragment=2)         14.9      21.71     17.94 
 H(Fragment=2)         15.75     21.43     18.26 
 H(Fragment=2)         14.8      21.28     17.09 
 O(Fragment=2)         24.03     23.13     22.85 
 H(Fragment=2)         23.48     22.52     22.35 
 H(Fragment=2)         24.55     22.57     23.43 
 O(Fragment=2)         16.11     16.47     17.25 
 H(Fragment=2)         16.56     17.25     17.57 
 H(Fragment=2)         15.46     16.8      16.64 
 O(Fragment=2)         21.76     17.       24.61 
 H(Fragment=2)         21.29     16.8      23.79 
 H(Fragment=2)         22.67     17.08     24.34 
 O(Fragment=2)         15.67     24.23     18.76 
 H(Fragment=2)         16.38     23.6      18.89 
 H(Fragment=2)         14.92     23.69     18.52 
 O(Fragment=2)         16.82     24.92     22.08 
 H(Fragment=2)         17.07     24.       22. 
 H(Fragment=2)         17.03     25.14     22.99 
 O(Fragment=2)         24.09     23.83     20.04 
 H(Fragment=2)         24.06     23.43     20.92 
 H(Fragment=2)         23.79     24.72     20.18 
 O(Fragment=2)         24.99     22.62     17.65 
 H(Fragment=2)         24.39     22.74     18.39 
 H(Fragment=2)         25.3      21.72     17.74 
 O(Fragment=2)         23.35     22.24     15.01 
 H(Fragment=2)         24.11     21.73     14.73 
 H(Fragment=2)         23.       21.75     15.76 
 O(Fragment=2)         21.05     21.73     25.52 
 H(Fragment=2)         21.43     20.85     25.45 
 H(Fragment=2)         21.73     22.26     25.92 
 O(Fragment=2)         18.86     20.64     26.45 
 H(Fragment=2)         18.76     19.94     25.81 
 H(Fragment=2)         19.7      21.04     26.25 
 O(Fragment=2)         22.97     24.86     16.97 
 H(Fragment=2)         22.04     24.64     16.85 
 H(Fragment=2)         23.42     24.02     16.94 
 O(Fragment=2)         16.59     22.04     24.6 
 H(Fragment=2)         16.1      21.72     25.36 
 H(Fragment=2)         17.25     22.63     24.97 
 O(Fragment=2)         26.24     17.78     22.08 
 H(Fragment=2)         26.02     17.56     22.98 
 H(Fragment=2)         25.41     17.7      21.6 
 O(Fragment=2)         22.25     19.19     25.86 
 H(Fragment=2)         23.02     19.37     25.31 
 H(Fragment=2)         21.99     18.3      25.63 
 O(Fragment=2)         21.7      25.57     22.35 
 H(Fragment=2)         21.11     25.87     21.66 
 H(Fragment=2)         22.57     25.79     22.02 
 O(Fragment=2)         24.15     14.33     19.51 
 H(Fragment=2)         24.06     15.26     19.3 
 H(Fragment=2)         24.95     14.06     19.08 
 O(Fragment=2)         19.05     23.46     14.69 
 H(Fragment=2)         18.32     23.74     15.24 
 H(Fragment=2)         18.76     22.62     14.32 
 O(Fragment=2)         24.55     18.35     15.98 
 H(Fragment=2)         25.46     18.13     16.18 
 H(Fragment=2)         24.11     17.51     15.88 
 O(Fragment=2)         20.06     26.44     20.42 
 H(Fragment=2)         20.28     27.19     19.86 
 H(Fragment=2)         19.13     26.29     20.26 
 O(Fragment=2)         13.29     18.97     22.22 
 H(Fragment=2)         14.01     19.59     22.16 
 H(Fragment=2)         13.16     18.66     21.33 
 O(Fragment=2)         20.6      13.96     23.77 
 H(Fragment=2)         21.11     14.05     22.96 
 H(Fragment=2)         19.93     14.64     23.71 
 O(Fragment=2)         17.22     26.39     19.86 
 H(Fragment=2)         16.94     25.72     19.23 
 H(Fragment=2)         17.08     25.99     20.72 
 O(Fragment=2)         18.73     12.83     19.69 
 H(Fragment=2)         17.99     12.37     20.09 
 H(Fragment=2)         18.91     13.56     20.28 
 O(Fragment=2)         21.99     14.       18. 
 H(Fragment=2)         22.19     14.09     17.07 
 H(Fragment=2)         22.84     14.02     18.44 
 O(Fragment=2)         26.61     20.7      20.52 
 H(Fragment=2)         26.57     20.86     19.58 
 H(Fragment=2)         27.49     20.98     20.77 
 O(Fragment=2)         17.87     13.88     22.68 
 H(Fragment=2)         17.19     14.54     22.53 
 H(Fragment=2)         18.33     14.18     23.47 
 O(Fragment=2)         22.88     15.72     15.73 
 H(Fragment=2)         22.28     15.3      15.12 
 H(Fragment=2)         23.72     15.31     15.56 
 O(Fragment=2)         19.77     17.13     26.85 
 H(Fragment=2)         20.21     16.96     26.02 
 H(Fragment=2)         20.45     17.5      27.42 
 O(Fragment=2)         26.1      20.84     23.49 
 H(Fragment=2)         26.93     21.1      23.86 
 H(Fragment=2)         26.21     20.96     22.54 
 O(Fragment=2)         22.84     18.27     13.12 
 H(Fragment=2)         23.43     17.57     13.37 
 H(Fragment=2)         22.17     18.28     13.8 
 O(Fragment=2)         21.09     25.41     14.76 
 H(Fragment=2)         21.07     25.22     13.82 
 H(Fragment=2)         20.54     24.74     15.15 
 O(Fragment=2)         26.43     20.22     17.75 
 H(Fragment=2)         26.09     19.86     16.93 
 H(Fragment=2)         27.15     19.65     17.99 
 O(Fragment=2)         17.86     24.89     24.52 
 H(Fragment=2)         17.6      25.65     25.04 
 H(Fragment=2)         18.6      24.52     25.01 
 O(Fragment=2)         13.1      23.22     21.13 
 H(Fragment=2)         12.35     22.93     20.6 
 H(Fragment=2)         13.61     22.42     21.28 
 O(Fragment=2)         18.09     15.47     25.02 
 H(Fragment=2)         18.47     15.41     25.9 
 H(Fragment=2)         17.18     15.73     25.18 
 O(Fragment=2)         19.53     19.14     13.03 
 H(Fragment=2)         20.14     19.86     12.92 
 H(Fragment=2)         20.       18.37     12.72 
 O(Fragment=2)         25.29     20.41     14.38 
 H(Fragment=2)         24.9      19.74     14.94 
 H(Fragment=2)         26.05     19.97     13.99 
 O(Fragment=2)         12.95     19.63     19.05 
 H(Fragment=2)         12.3      19.39     18.39 
 H(Fragment=2)         12.51     20.28     19.6 
 O(Fragment=2)         17.28     25.55     16.05 
 H(Fragment=2)         16.58     25.29     16.64 
 H(Fragment=2)         17.13     26.48     15.9 
 O(Fragment=2)         16.02     18.09     13.48 
 H(Fragment=2)         15.41     17.87     14.19 
 H(Fragment=2)         16.53     18.82     13.83 
 O(Fragment=2)         18.04     14.94     14.73 
 H(Fragment=2)         18.15     14.5      15.57 
 H(Fragment=2)         17.37     15.61     14.89 
 O(Fragment=2)         24.56     14.02     22.27 
 H(Fragment=2)         24.59     14.05     21.31 
 H(Fragment=2)         23.64     14.14     22.49 
 O(Fragment=2)         19.72     27.01     16.71 
 H(Fragment=2)         20.21     26.61     15.99 
 H(Fragment=2)         18.89     26.54     16.73 
 O(Fragment=2)         16.22     20.94     12.54 
 H(Fragment=2)         16.95     21.13     11.95 
 H(Fragment=2)         16.61     20.98     13.42 
 O(Fragment=2)         15.61     16.56     25.33 
 H(Fragment=2)         15.51     16.06     24.52 
 H(Fragment=2)         14.92     17.22     25.3 
 O(Fragment=2)         25.85     25.35     22.4 
 H(Fragment=2)         25.5      24.46     22.45 
 H(Fragment=2)         26.11     25.55     23.3 
 O(Fragment=2)         25.95     25.81     18.53 
 H(Fragment=2)         25.16     25.27     18.55 
 H(Fragment=2)         26.14     25.91     17.6 
 O(Fragment=2)         14.2      25.4      22.18 
 H(Fragment=2)         15.15     25.34     22.13 
 H(Fragment=2)         13.88     24.61     21.74 
 O(Fragment=2)         15.25     14.57     22.68 
 H(Fragment=2)         15.05     14.58     21.74 
 H(Fragment=2)         14.45     14.26     23.1 
 O(Fragment=2)         27.53     17.69     19.28 
 H(Fragment=2)         28.46     17.89     19.43 
 H(Fragment=2)         27.17     17.54     20.15 
 O(Fragment=2)         22.51     26.01     25.15 
 H(Fragment=2)         23.43     25.75     25.25 
 H(Fragment=2)         22.32     25.86     24.22 
 O(Fragment=2)         24.4      15.77     24.53 
 H(Fragment=2)         24.88     15.13     23.99 
 H(Fragment=2)         25.08     16.39     24.8 
 O(Fragment=2)         20.86     13.99     15.01 
 H(Fragment=2)         20.06     14.45     14.76 
 H(Fragment=2)         20.55     13.22     15.49 
 O(Fragment=2)         14.16     14.34     17.37 
 H(Fragment=2)         14.59     13.87     16.65 
 H(Fragment=2)         14.68     15.14     17.47 
 O(Fragment=2)         13.27     21.5      24.44 
 H(Fragment=2)         13.57     22.       23.68 
 H(Fragment=2)         14.04     21.44     25. 
 O(Fragment=2)         19.49     12.67     16.98 
 H(Fragment=2)         20.39     12.8      17.28 
 H(Fragment=2)         18.98     12.6      17.79 
 O(Fragment=2)         23.75     26.64     21.3 
 H(Fragment=2)         23.89     27.18     20.52 
 H(Fragment=2)         24.59     26.69     21.77 
 O(Fragment=2)         14.39     26.67     19.11 
 H(Fragment=2)         14.33     26.99     18.2 
 H(Fragment=2)         15.05     25.98     19.07 
 O(Fragment=2)         22.74     19.5      28.35 
 H(Fragment=2)         22.41     19.5      27.45 
 H(Fragment=2)         23.35     20.24     28.38 
 O(Fragment=2)         15.25     20.62     26.65 
 H(Fragment=2)         16.07     20.14     26.81 
 H(Fragment=2)         14.57     20.05     27.03 
 O(Fragment=2)         21.21     21.24     12.32 
 H(Fragment=2)         20.72     21.98     11.96 
 H(Fragment=2)         22.1      21.35     12. 
 O(Fragment=2)         17.1      17.98     27.56 
 H(Fragment=2)         16.56     17.63     26.84 
 H(Fragment=2)         18.       17.74     27.32 
 O(Fragment=2)         13.64     18.49     24.88 
 H(Fragment=2)         13.38     18.24     24. 
 H(Fragment=2)         13.43     19.43     24.94 
 O(Fragment=2)         26.9      17.14     16.65 
 H(Fragment=2)         27.75     17.11     16.2 
 H(Fragment=2)         27.12     17.41     17.54 
 O(Fragment=2)         23.82     27.57     17.7 
 H(Fragment=2)         24.53     27.42     17.07 
 H(Fragment=2)         23.17     26.89     17.49 
 O(Fragment=2)         27.25     24.09     16.68 
 H(Fragment=2)         26.46     23.6      16.92 
 H(Fragment=2)         27.11     24.34     15.77 
 O(Fragment=2)         12.76     18.71     16.18 
 H(Fragment=2)         11.85     18.69     15.89 
 H(Fragment=2)         13.03     19.62     16.05 
 O(Fragment=2)         13.81     21.53     15.11 
 H(Fragment=2)         13.7      21.04     14.29 
 H(Fragment=2)         12.93     21.61     15.47 
 O(Fragment=2)         14.5      16.62     15.19 
 H(Fragment=2)         14.51     15.73     14.84 
 H(Fragment=2)         13.58     16.79     15.38 
 O(Fragment=2)         27.8      23.46     19.31 
 H(Fragment=2)         27.89     23.66     18.38 
 H(Fragment=2)         27.06     24.       19.6 
 O(Fragment=2)         17.09     21.86     28.31 
 H(Fragment=2)         17.48     22.74     28.37 
 H(Fragment=2)         17.64     21.4      27.68 
 O(Fragment=2)         23.02     13.43     25.04 
 H(Fragment=2)         22.17     13.46     24.61 
 H(Fragment=2)         23.43     14.26     24.82 
 O(Fragment=2)         25.09     24.99     14.26 
 H(Fragment=2)         24.33     24.57     14.66 
 H(Fragment=2)         25.7      24.28     14.1 
 O(Fragment=2)         25.46     20.95     27.11 
 H(Fragment=2)         25.38     21.4      27.95 
 H(Fragment=2)         24.9      21.44     26.51 
 O(Fragment=2)         20.25     28.6      18.67 
 H(Fragment=2)         20.11     29.47     18.29 
 H(Fragment=2)         20.31     28.01     17.91 
 O(Fragment=2)         20.75     10.95     20.1 
 H(Fragment=2)         20.09     10.37     19.72 
 H(Fragment=2)         20.27     11.72     20.39 
 O(Fragment=2)         23.35     23.07     26.99 
 H(Fragment=2)         23.19     23.11     27.94 
 H(Fragment=2)         24.01     23.74     26.83 
 O(Fragment=2)         16.55     11.75     21.47 
 H(Fragment=2)         16.76     10.92     21.9 
 H(Fragment=2)         17.05     12.41     21.94 
 O(Fragment=2)         14.7      25.17     25.44 
 H(Fragment=2)         15.01     24.92     24.58 
 H(Fragment=2)         15.37     25.77     25.78 
 O(Fragment=2)         23.38     16.57     27.51 
 H(Fragment=2)         23.71     16.16     26.71 
 H(Fragment=2)         23.29     17.5      27.29 
 O(Fragment=2)         21.82     28.3      23.41 
 H(Fragment=2)         22.02     27.37     23.46 
 H(Fragment=2)         22.37     28.7      24.08 
 O(Fragment=2)         23.45     11.46     20.38 
 H(Fragment=2)         23.36     12.28     19.89 
 H(Fragment=2)         22.57     11.08     20.37 
 O(Fragment=2)         25.68     14.87     15.48 
 H(Fragment=2)         25.98     15.55     16.08 
 H(Fragment=2)         26.4      14.23     15.46 
 O(Fragment=2)         16.59     24.89     13.48 
 H(Fragment=2)         17.06     25.65     13.15 
 H(Fragment=2)         16.36     25.12     14.38 
 O(Fragment=2)         28.81     18.91     22.76 
 H(Fragment=2)         27.93     18.56     22.63 
 H(Fragment=2)         29.09     19.2      21.89 
 O(Fragment=2)         15.38     28.24     21.39 
 H(Fragment=2)         15.69     27.41     21.03 
 H(Fragment=2)         14.47     28.31     21.09 
 O(Fragment=2)         12.23     15.79     16.44 
 H(Fragment=2)         12.74     16.21     17.13 
 H(Fragment=2)         12.51     14.88     16.45 
 O(Fragment=2)         12.87     14.71     19.9 
 H(Fragment=2)         13.1      14.5      19. 
 H(Fragment=2)         12.49     15.59     19.86 
 O(Fragment=2)         20.24     25.78     26.87 
 H(Fragment=2)         19.88     26.67     26.81 
 H(Fragment=2)         21.07     25.83     26.39 
 O(Fragment=2)         17.45     16.3      11.82 
 H(Fragment=2)         17.26     16.66     10.96 
 H(Fragment=2)         16.98     16.87     12.43 
 O(Fragment=2)         13.48     24.19     15.67 
 H(Fragment=2)         12.93     23.58     16.16 
 H(Fragment=2)         13.7      23.73     14.87 
 O(Fragment=2)         16.97     28.85     18.29 
 H(Fragment=2)         17.75     29.09     18.78 
 H(Fragment=2)         16.63     28.07     18.74 
 O(Fragment=2)         17.96     19.29     10.47 
 H(Fragment=2)         18.22     19.11     11.37 
 H(Fragment=2)         18.75     19.64     10.06 
 O(Fragment=2)         10.79     20.63     21.27 
 H(Fragment=2)         11.33     20.23     21.95 
 H(Fragment=2)         9.99      20.09     21.25 
 O(Fragment=2)         26.58     17.1      25.23 
 H(Fragment=2)         27.42     16.66     25.34 
 H(Fragment=2)         26.54     17.72     25.96 
 O(Fragment=2)         18.61     12.51     25.51 
 H(Fragment=2)         19.26     12.54     24.81 
 H(Fragment=2)         18.16     11.68     25.38 
 O(Fragment=2)         21.26     22.63     29.24 
 H(Fragment=2)         20.77     23.04     29.95 
 H(Fragment=2)         20.6      22.47     28.56 
 O(Fragment=2)         11.51     21.89     16.34 
 H(Fragment=2)         11.57     21.46     17.19 
 H(Fragment=2)         10.62     22.23     16.3 
 O(Fragment=2)         24.67     16.01     13.14 
 H(Fragment=2)         24.89     15.35     12.49 
 H(Fragment=2)         25.1      15.71     13.94 
 O(Fragment=2)         22.       18.26     10.47 
 H(Fragment=2)         21.73     17.36     10.31 
 H(Fragment=2)         22.42     18.24     11.32 
 O(Fragment=2)         18.09     22.92     11.5 
 H(Fragment=2)         18.75     23.61     11.58 
 H(Fragment=2)         17.25     23.37     11.59 
 O(Fragment=2)         23.96     20.89     11.47 
 H(Fragment=2)         24.64     21.02     12.13 
 H(Fragment=2)         23.78     19.95     11.5 
 O(Fragment=2)         14.22     26.86     16.38 
 H(Fragment=2)         14.03     25.93     16.24 
 H(Fragment=2)         14.36     27.2      15.49 
 O(Fragment=2)         11.27     17.       19.48 
 H(Fragment=2)         10.97     17.61     18.8 
 H(Fragment=2)         10.86     17.33     20.28 
 O(Fragment=2)         20.38     29.77     21.6 
 H(Fragment=2)         20.62     29.02     22.15 
 H(Fragment=2)         20.25     29.39     20.73 
 
 NAtoms=    385 NQM=      385 NQMF=       0 NMMI=      0 NMMIF=      0
                NMic=       0 NMicF=      0.
                    Isotopes and Nuclear Properties:
 (Nuclear quadrupole moments (NQMom) in fm**2, nuclear magnetic moments (NMagM)
  in nuclear magnetons)

  Atom         1           2           3           4           5           6           7           8           9          10
 IAtWgt=          79          16           1           1          16           1           1          16           1           1
 AtmWgt=  78.9183361  15.9949146   1.0078250   1.0078250  15.9949146   1.0078250   1.0078250  15.9949146   1.0078250   1.0078250
 NucSpn=           3           0           1           1           0           1           1           0           1           1
 AtZEff=   0.0000000   0.0000000   0.0000000   0.0000000   0.0000000   0.0000000   0.0000000   0.0000000   0.0000000   0.0000000
 NQMom=   31.3000000   0.0000000   0.0000000   0.0000000   0.0000000   0.0000000   0.0000000   0.0000000   0.0000000   0.0000000
 NMagM=    2.1063990   0.0000000   2.7928460   2.7928460   0.0000000   2.7928460   2.7928460   0.0000000   2.7928460   2.7928460
 AtZNuc=  35.0000000   8.0000000   1.0000000   1.0000000   8.0000000   1.0000000   1.0000000   8.0000000   1.0000000   1.0000000

  Atom        11          12          13          14          15          16          17          18          19          20
 IAtWgt=          16           1           1          16           1           1          16           1           1          16
 AtmWgt=  15.9949146   1.0078250   1.0078250  15.9949146   1.0078250   1.0078250  15.9949146   1.0078250   1.0078250  15.9949146
 NucSpn=           0           1           1           0           1           1           0           1           1           0
 AtZEff=   0.0000000   0.0000000   0.0000000   0.0000000   0.0000000   0.0000000   0.0000000   0.0000000   0.0000000   0.0000000
 NQMom=    0.0000000   0.0000000   0.0000000   0.0000000   0.0000000   0.0000000   0.0000000   0.0000000   0.0000000   0.0000000
 NMagM=    0.0000000   2.7928460   2.7928460   0.0000000   2.7928460   2.7928460   0.0000000   2.7928460   2.7928460   0.0000000
 AtZNuc=   8.0000000   1.0000000   1.0000000   8.0000000   1.0000000   1.0000000   8.0000000   1.0000000   1.0000000   8.0000000

  Atom        21          22          23          24          25          26          27          28          29          30
 IAtWgt=           1           1          16           1           1          16           1           1          16           1
 AtmWgt=   1.0078250   1.0078250  15.9949146   1.0078250   1.0078250  15.9949146   1.0078250   1.0078250  15.9949146   1.0078250
 NucSpn=           1           1           0           1           1           0           1           1           0           1
 AtZEff=   0.0000000   0.0000000   0.0000000   0.0000000   0.0000000   0.0000000   0.0000000   0.0000000   0.0000000   0.0000000
 NQMom=    0.0000000   0.0000000   0.0000000   0.0000000   0.0000000   0.0000000   0.0000000   0.0000000   0.0000000   0.0000000
 NMagM=    2.7928460   2.7928460   0.0000000   2.7928460   2.7928460   0.0000000   2.7928460   2.7928460   0.0000000   2.7928460
 AtZNuc=   1.0000000   1.0000000   8.0000000   1.0000000   1.0000000   8.0000000   1.0000000   1.0000000   8.0000000   1.0000000

  Atom        31          32          33          34          35          36          37          38          39          40
 IAtWgt=           1          16           1           1          16           1           1          16           1           1
 AtmWgt=   1.0078250  15.9949146   1.0078250   1.0078250  15.9949146   1.0078250   1.0078250  15.9949146   1.0078250   1.0078250
 NucSpn=           1           0           1           1           0           1           1           0           1           1
 AtZEff=   0.0000000   0.0000000   0.0000000   0.0000000   0.0000000   0.0000000   0.0000000   0.0000000   0.0000000   0.0000000
 NQMom=    0.0000000   0.0000000   0.0000000   0.0000000   0.0000000   0.0000000   0.0000000   0.0000000   0.0000000   0.0000000
 NMagM=    2.7928460   0.0000000   2.7928460   2.7928460   0.0000000   2.7928460   2.7928460   0.0000000   2.7928460   2.7928460
 AtZNuc=   1.0000000   8.0000000   1.0000000   1.0000000   8.0000000   1.0000000   1.0000000   8.0000000   1.0000000   1.0000000

  Atom        41          42          43          44          45          46          47          48          49          50
 IAtWgt=          16           1           1          16           1           1          16           1           1          16
 AtmWgt=  15.9949146   1.0078250   1.0078250  15.9949146   1.0078250   1.0078250  15.9949146   1.0078250   1.0078250  15.9949146
 NucSpn=           0           1           1           0           1           1           0           1           1           0
 AtZEff=   0.0000000   0.0000000   0.0000000   0.0000000   0.0000000   0.0000000   0.0000000   0.0000000   0.0000000   0.0000000
 NQMom=    0.0000000   0.0000000   0.0000000   0.0000000   0.0000000   0.0000000   0.0000000   0.0000000   0.0000000   0.0000000
 NMagM=    0.0000000   2.7928460   2.7928460   0.0000000   2.7928460   2.7928460   0.0000000   2.7928460   2.7928460   0.0000000
 AtZNuc=   8.0000000   1.0000000   1.0000000   8.0000000   1.0000000   1.0000000   8.0000000   1.0000000   1.0000000   8.0000000

  Atom        51          52          53          54          55          56          57          58          59          60
 IAtWgt=           1           1          16           1           1          16           1           1          16           1
 AtmWgt=   1.0078250   1.0078250  15.9949146   1.0078250   1.0078250  15.9949146   1.0078250   1.0078250  15.9949146   1.0078250
 NucSpn=           1           1           0           1           1           0           1           1           0           1
 AtZEff=   0.0000000   0.0000000   0.0000000   0.0000000   0.0000000   0.0000000   0.0000000   0.0000000   0.0000000   0.0000000
 NQMom=    0.0000000   0.0000000   0.0000000   0.0000000   0.0000000   0.0000000   0.0000000   0.0000000   0.0000000   0.0000000
 NMagM=    2.7928460   2.7928460   0.0000000   2.7928460   2.7928460   0.0000000   2.7928460   2.7928460   0.0000000   2.7928460
 AtZNuc=   1.0000000   1.0000000   8.0000000   1.0000000   1.0000000   8.0000000   1.0000000   1.0000000   8.0000000   1.0000000

  Atom        61          62          63          64          65          66          67          68          69          70
 IAtWgt=           1          16           1           1          16           1           1          16           1           1
 AtmWgt=   1.0078250  15.9949146   1.0078250   1.0078250  15.9949146   1.0078250   1.0078250  15.9949146   1.0078250   1.0078250
 NucSpn=           1           0           1           1           0           1           1           0           1           1
 AtZEff=   0.0000000   0.0000000   0.0000000   0.0000000   0.0000000   0.0000000   0.0000000   0.0000000   0.0000000   0.0000000
 NQMom=    0.0000000   0.0000000   0.0000000   0.0000000   0.0000000   0.0000000   0.0000000   0.0000000   0.0000000   0.0000000
 NMagM=    2.7928460   0.0000000   2.7928460   2.7928460   0.0000000   2.7928460   2.7928460   0.0000000   2.7928460   2.7928460
 AtZNuc=   1.0000000   8.0000000   1.0000000   1.0000000   8.0000000   1.0000000   1.0000000   8.0000000   1.0000000   1.0000000

  Atom        71          72          73          74          75          76          77          78          79          80
 IAtWgt=          16           1           1          16           1           1          16           1           1          16
 AtmWgt=  15.9949146   1.0078250   1.0078250  15.9949146   1.0078250   1.0078250  15.9949146   1.0078250   1.0078250  15.9949146
 NucSpn=           0           1           1           0           1           1           0           1           1           0
 AtZEff=   0.0000000   0.0000000   0.0000000   0.0000000   0.0000000   0.0000000   0.0000000   0.0000000   0.0000000   0.0000000
 NQMom=    0.0000000   0.0000000   0.0000000   0.0000000   0.0000000   0.0000000   0.0000000   0.0000000   0.0000000   0.0000000
 NMagM=    0.0000000   2.7928460   2.7928460   0.0000000   2.7928460   2.7928460   0.0000000   2.7928460   2.7928460   0.0000000
 AtZNuc=   8.0000000   1.0000000   1.0000000   8.0000000   1.0000000   1.0000000   8.0000000   1.0000000   1.0000000   8.0000000

  Atom        81          82          83          84          85          86          87          88          89          90
 IAtWgt=           1           1          16           1           1          16           1           1          16           1
 AtmWgt=   1.0078250   1.0078250  15.9949146   1.0078250   1.0078250  15.9949146   1.0078250   1.0078250  15.9949146   1.0078250
 NucSpn=           1           1           0           1           1           0           1           1           0           1
 AtZEff=   0.0000000   0.0000000   0.0000000   0.0000000   0.0000000   0.0000000   0.0000000   0.0000000   0.0000000   0.0000000
 NQMom=    0.0000000   0.0000000   0.0000000   0.0000000   0.0000000   0.0000000   0.0000000   0.0000000   0.0000000   0.0000000
 NMagM=    2.7928460   2.7928460   0.0000000   2.7928460   2.7928460   0.0000000   2.7928460   2.7928460   0.0000000   2.7928460
 AtZNuc=   1.0000000   1.0000000   8.0000000   1.0000000   1.0000000   8.0000000   1.0000000   1.0000000   8.0000000   1.0000000

  Atom        91          92          93          94          95          96          97          98          99         100
 IAtWgt=           1          16           1           1          16           1           1          16           1           1
 AtmWgt=   1.0078250  15.9949146   1.0078250   1.0078250  15.9949146   1.0078250   1.0078250  15.9949146   1.0078250   1.0078250
 NucSpn=           1           0           1           1           0           1           1           0           1           1
 AtZEff=   0.0000000   0.0000000   0.0000000   0.0000000   0.0000000   0.0000000   0.0000000   0.0000000   0.0000000   0.0000000
 NQMom=    0.0000000   0.0000000   0.0000000   0.0000000   0.0000000   0.0000000   0.0000000   0.0000000   0.0000000   0.0000000
 NMagM=    2.7928460   0.0000000   2.7928460   2.7928460   0.0000000   2.7928460   2.7928460   0.0000000   2.7928460   2.7928460
 AtZNuc=   1.0000000   8.0000000   1.0000000   1.0000000   8.0000000   1.0000000   1.0000000   8.0000000   1.0000000   1.0000000

  Atom       101         102         103         104         105         106         107         108         109         110
 IAtWgt=          16           1           1          16           1           1          16           1           1          16
 AtmWgt=  15.9949146   1.0078250   1.0078250  15.9949146   1.0078250   1.0078250  15.9949146   1.0078250   1.0078250  15.9949146
 NucSpn=           0           1           1           0           1           1           0           1           1           0
 AtZEff=   0.0000000   0.0000000   0.0000000   0.0000000   0.0000000   0.0000000   0.0000000   0.0000000   0.0000000   0.0000000
 NQMom=    0.0000000   0.0000000   0.0000000   0.0000000   0.0000000   0.0000000   0.0000000   0.0000000   0.0000000   0.0000000
 NMagM=    0.0000000   2.7928460   2.7928460   0.0000000   2.7928460   2.7928460   0.0000000   2.7928460   2.7928460   0.0000000
 AtZNuc=   8.0000000   1.0000000   1.0000000   8.0000000   1.0000000   1.0000000   8.0000000   1.0000000   1.0000000   8.0000000

  Atom       111         112         113         114         115         116         117         118         119         120
 IAtWgt=           1           1          16           1           1          16           1           1          16           1
 AtmWgt=   1.0078250   1.0078250  15.9949146   1.0078250   1.0078250  15.9949146   1.0078250   1.0078250  15.9949146   1.0078250
 NucSpn=           1           1           0           1           1           0           1           1           0           1
 AtZEff=   0.0000000   0.0000000   0.0000000   0.0000000   0.0000000   0.0000000   0.0000000   0.0000000   0.0000000   0.0000000
 NQMom=    0.0000000   0.0000000   0.0000000   0.0000000   0.0000000   0.0000000   0.0000000   0.0000000   0.0000000   0.0000000
 NMagM=    2.7928460   2.7928460   0.0000000   2.7928460   2.7928460   0.0000000   2.7928460   2.7928460   0.0000000   2.7928460
 AtZNuc=   1.0000000   1.0000000   8.0000000   1.0000000   1.0000000   8.0000000   1.0000000   1.0000000   8.0000000   1.0000000

  Atom       121         122         123         124         125         126         127         128         129         130
 IAtWgt=           1          16           1           1          16           1           1          16           1           1
 AtmWgt=   1.0078250  15.9949146   1.0078250   1.0078250  15.9949146   1.0078250   1.0078250  15.9949146   1.0078250   1.0078250
 NucSpn=           1           0           1           1           0           1           1           0           1           1
 AtZEff=   0.0000000   0.0000000   0.0000000   0.0000000   0.0000000   0.0000000   0.0000000   0.0000000   0.0000000   0.0000000
 NQMom=    0.0000000   0.0000000   0.0000000   0.0000000   0.0000000   0.0000000   0.0000000   0.0000000   0.0000000   0.0000000
 NMagM=    2.7928460   0.0000000   2.7928460   2.7928460   0.0000000   2.7928460   2.7928460   0.0000000   2.7928460   2.7928460
 AtZNuc=   1.0000000   8.0000000   1.0000000   1.0000000   8.0000000   1.0000000   1.0000000   8.0000000   1.0000000   1.0000000

  Atom       131         132         133         134         135         136         137         138         139         140
 IAtWgt=          16           1           1          16           1           1          16           1           1          16
 AtmWgt=  15.9949146   1.0078250   1.0078250  15.9949146   1.0078250   1.0078250  15.9949146   1.0078250   1.0078250  15.9949146
 NucSpn=           0           1           1           0           1           1           0           1           1           0
 AtZEff=   0.0000000   0.0000000   0.0000000   0.0000000   0.0000000   0.0000000   0.0000000   0.0000000   0.0000000   0.0000000
 NQMom=    0.0000000   0.0000000   0.0000000   0.0000000   0.0000000   0.0000000   0.0000000   0.0000000   0.0000000   0.0000000
 NMagM=    0.0000000   2.7928460   2.7928460   0.0000000   2.7928460   2.7928460   0.0000000   2.7928460   2.7928460   0.0000000
 AtZNuc=   8.0000000   1.0000000   1.0000000   8.0000000   1.0000000   1.0000000   8.0000000   1.0000000   1.0000000   8.0000000

  Atom       141         142         143         144         145         146         147         148         149         150
 IAtWgt=           1           1          16           1           1          16           1           1          16           1
 AtmWgt=   1.0078250   1.0078250  15.9949146   1.0078250   1.0078250  15.9949146   1.0078250   1.0078250  15.9949146   1.0078250
 NucSpn=           1           1           0           1           1           0           1           1           0           1
 AtZEff=   0.0000000   0.0000000   0.0000000   0.0000000   0.0000000   0.0000000   0.0000000   0.0000000   0.0000000   0.0000000
 NQMom=    0.0000000   0.0000000   0.0000000   0.0000000   0.0000000   0.0000000   0.0000000   0.0000000   0.0000000   0.0000000
 NMagM=    2.7928460   2.7928460   0.0000000   2.7928460   2.7928460   0.0000000   2.7928460   2.7928460   0.0000000   2.7928460
 AtZNuc=   1.0000000   1.0000000   8.0000000   1.0000000   1.0000000   8.0000000   1.0000000   1.0000000   8.0000000   1.0000000

  Atom       151         152         153         154         155         156         157         158         159         160
 IAtWgt=           1          16           1           1          16           1           1          16           1           1
 AtmWgt=   1.0078250  15.9949146   1.0078250   1.0078250  15.9949146   1.0078250   1.0078250  15.9949146   1.0078250   1.0078250
 NucSpn=           1           0           1           1           0           1           1           0           1           1
 AtZEff=   0.0000000   0.0000000   0.0000000   0.0000000   0.0000000   0.0000000   0.0000000   0.0000000   0.0000000   0.0000000
 NQMom=    0.0000000   0.0000000   0.0000000   0.0000000   0.0000000   0.0000000   0.0000000   0.0000000   0.0000000   0.0000000
 NMagM=    2.7928460   0.0000000   2.7928460   2.7928460   0.0000000   2.7928460   2.7928460   0.0000000   2.7928460   2.7928460
 AtZNuc=   1.0000000   8.0000000   1.0000000   1.0000000   8.0000000   1.0000000   1.0000000   8.0000000   1.0000000   1.0000000

  Atom       161         162         163         164         165         166         167         168         169         170
 IAtWgt=          16           1           1          16           1           1          16           1           1          16
 AtmWgt=  15.9949146   1.0078250   1.0078250  15.9949146   1.0078250   1.0078250  15.9949146   1.0078250   1.0078250  15.9949146
 NucSpn=           0           1           1           0           1           1           0           1           1           0
 AtZEff=   0.0000000   0.0000000   0.0000000   0.0000000   0.0000000   0.0000000   0.0000000   0.0000000   0.0000000   0.0000000
 NQMom=    0.0000000   0.0000000   0.0000000   0.0000000   0.0000000   0.0000000   0.0000000   0.0000000   0.0000000   0.0000000
 NMagM=    0.0000000   2.7928460   2.7928460   0.0000000   2.7928460   2.7928460   0.0000000   2.7928460   2.7928460   0.0000000
 AtZNuc=   8.0000000   1.0000000   1.0000000   8.0000000   1.0000000   1.0000000   8.0000000   1.0000000   1.0000000   8.0000000

  Atom       171         172         173         174         175         176         177         178         179         180
 IAtWgt=           1           1          16           1           1          16           1           1          16           1
 AtmWgt=   1.0078250   1.0078250  15.9949146   1.0078250   1.0078250  15.9949146   1.0078250   1.0078250  15.9949146   1.0078250
 NucSpn=           1           1           0           1           1           0           1           1           0           1
 AtZEff=   0.0000000   0.0000000   0.0000000   0.0000000   0.0000000   0.0000000   0.0000000   0.0000000   0.0000000   0.0000000
 NQMom=    0.0000000   0.0000000   0.0000000   0.0000000   0.0000000   0.0000000   0.0000000   0.0000000   0.0000000   0.0000000
 NMagM=    2.7928460   2.7928460   0.0000000   2.7928460   2.7928460   0.0000000   2.7928460   2.7928460   0.0000000   2.7928460
 AtZNuc=   1.0000000   1.0000000   8.0000000   1.0000000   1.0000000   8.0000000   1.0000000   1.0000000   8.0000000   1.0000000

  Atom       181         182         183         184         185         186         187         188         189         190
 IAtWgt=           1          16           1           1          16           1           1          16           1           1
 AtmWgt=   1.0078250  15.9949146   1.0078250   1.0078250  15.9949146   1.0078250   1.0078250  15.9949146   1.0078250   1.0078250
 NucSpn=           1           0           1           1           0           1           1           0           1           1
 AtZEff=   0.0000000   0.0000000   0.0000000   0.0000000   0.0000000   0.0000000   0.0000000   0.0000000   0.0000000   0.0000000
 NQMom=    0.0000000   0.0000000   0.0000000   0.0000000   0.0000000   0.0000000   0.0000000   0.0000000   0.0000000   0.0000000
 NMagM=    2.7928460   0.0000000   2.7928460   2.7928460   0.0000000   2.7928460   2.7928460   0.0000000   2.7928460   2.7928460
 AtZNuc=   1.0000000   8.0000000   1.0000000   1.0000000   8.0000000   1.0000000   1.0000000   8.0000000   1.0000000   1.0000000

  Atom       191         192         193         194         195         196         197         198         199         200
 IAtWgt=          16           1           1          16           1           1          16           1           1          16
 AtmWgt=  15.9949146   1.0078250   1.0078250  15.9949146   1.0078250   1.0078250  15.9949146   1.0078250   1.0078250  15.9949146
 NucSpn=           0           1           1           0           1           1           0           1           1           0
 AtZEff=   0.0000000   0.0000000   0.0000000   0.0000000   0.0000000   0.0000000   0.0000000   0.0000000   0.0000000   0.0000000
 NQMom=    0.0000000   0.0000000   0.0000000   0.0000000   0.0000000   0.0000000   0.0000000   0.0000000   0.0000000   0.0000000
 NMagM=    0.0000000   2.7928460   2.7928460   0.0000000   2.7928460   2.7928460   0.0000000   2.7928460   2.7928460   0.0000000
 AtZNuc=   8.0000000   1.0000000   1.0000000   8.0000000   1.0000000   1.0000000   8.0000000   1.0000000   1.0000000   8.0000000

  Atom       201         202         203         204         205         206         207         208         209         210
 IAtWgt=           1           1          16           1           1          16           1           1          16           1
 AtmWgt=   1.0078250   1.0078250  15.9949146   1.0078250   1.0078250  15.9949146   1.0078250   1.0078250  15.9949146   1.0078250
 NucSpn=           1           1           0           1           1           0           1           1           0           1
 AtZEff=   0.0000000   0.0000000   0.0000000   0.0000000   0.0000000   0.0000000   0.0000000   0.0000000   0.0000000   0.0000000
 NQMom=    0.0000000   0.0000000   0.0000000   0.0000000   0.0000000   0.0000000   0.0000000   0.0000000   0.0000000   0.0000000
 NMagM=    2.7928460   2.7928460   0.0000000   2.7928460   2.7928460   0.0000000   2.7928460   2.7928460   0.0000000   2.7928460
 AtZNuc=   1.0000000   1.0000000   8.0000000   1.0000000   1.0000000   8.0000000   1.0000000   1.0000000   8.0000000   1.0000000

  Atom       211         212         213         214         215         216         217         218         219         220
 IAtWgt=           1          16           1           1          16           1           1          16           1           1
 AtmWgt=   1.0078250  15.9949146   1.0078250   1.0078250  15.9949146   1.0078250   1.0078250  15.9949146   1.0078250   1.0078250
 NucSpn=           1           0           1           1           0           1           1           0           1           1
 AtZEff=   0.0000000   0.0000000   0.0000000   0.0000000   0.0000000   0.0000000   0.0000000   0.0000000   0.0000000   0.0000000
 NQMom=    0.0000000   0.0000000   0.0000000   0.0000000   0.0000000   0.0000000   0.0000000   0.0000000   0.0000000   0.0000000
 NMagM=    2.7928460   0.0000000   2.7928460   2.7928460   0.0000000   2.7928460   2.7928460   0.0000000   2.7928460   2.7928460
 AtZNuc=   1.0000000   8.0000000   1.0000000   1.0000000   8.0000000   1.0000000   1.0000000   8.0000000   1.0000000   1.0000000

  Atom       221         222         223         224         225         226         227         228         229         230
 IAtWgt=          16           1           1          16           1           1          16           1           1          16
 AtmWgt=  15.9949146   1.0078250   1.0078250  15.9949146   1.0078250   1.0078250  15.9949146   1.0078250   1.0078250  15.9949146
 NucSpn=           0           1           1           0           1           1           0           1           1           0
 AtZEff=   0.0000000   0.0000000   0.0000000   0.0000000   0.0000000   0.0000000   0.0000000   0.0000000   0.0000000   0.0000000
 NQMom=    0.0000000   0.0000000   0.0000000   0.0000000   0.0000000   0.0000000   0.0000000   0.0000000   0.0000000   0.0000000
 NMagM=    0.0000000   2.7928460   2.7928460   0.0000000   2.7928460   2.7928460   0.0000000   2.7928460   2.7928460   0.0000000
 AtZNuc=   8.0000000   1.0000000   1.0000000   8.0000000   1.0000000   1.0000000   8.0000000   1.0000000   1.0000000   8.0000000

  Atom       231         232         233         234         235         236         237         238         239         240
 IAtWgt=           1           1          16           1           1          16           1           1          16           1
 AtmWgt=   1.0078250   1.0078250  15.9949146   1.0078250   1.0078250  15.9949146   1.0078250   1.0078250  15.9949146   1.0078250
 NucSpn=           1           1           0           1           1           0           1           1           0           1
 AtZEff=   0.0000000   0.0000000   0.0000000   0.0000000   0.0000000   0.0000000   0.0000000   0.0000000   0.0000000   0.0000000
 NQMom=    0.0000000   0.0000000   0.0000000   0.0000000   0.0000000   0.0000000   0.0000000   0.0000000   0.0000000   0.0000000
 NMagM=    2.7928460   2.7928460   0.0000000   2.7928460   2.7928460   0.0000000   2.7928460   2.7928460   0.0000000   2.7928460
 AtZNuc=   1.0000000   1.0000000   8.0000000   1.0000000   1.0000000   8.0000000   1.0000000   1.0000000   8.0000000   1.0000000

  Atom       241         242         243         244         245         246         247         248         249         250
 IAtWgt=           1          16           1           1          16           1           1          16           1           1
 AtmWgt=   1.0078250  15.9949146   1.0078250   1.0078250  15.9949146   1.0078250   1.0078250  15.9949146   1.0078250   1.0078250
 NucSpn=           1           0           1           1           0           1           1           0           1           1
 AtZEff=   0.0000000   0.0000000   0.0000000   0.0000000   0.0000000   0.0000000   0.0000000   0.0000000   0.0000000   0.0000000
 NQMom=    0.0000000   0.0000000   0.0000000   0.0000000   0.0000000   0.0000000   0.0000000   0.0000000   0.0000000   0.0000000
 NMagM=    2.7928460   0.0000000   2.7928460   2.7928460   0.0000000   2.7928460   2.7928460   0.0000000   2.7928460   2.7928460
 AtZNuc=   1.0000000   8.0000000   1.0000000   1.0000000   8.0000000   1.0000000   1.0000000   8.0000000   1.0000000   1.0000000

  Atom       251         252         253         254         255         256         257         258         259         260
 IAtWgt=          16           1           1          16           1           1          16           1           1          16
 AtmWgt=  15.9949146   1.0078250   1.0078250  15.9949146   1.0078250   1.0078250  15.9949146   1.0078250   1.0078250  15.9949146
 NucSpn=           0           1           1           0           1           1           0           1           1           0
 AtZEff=   0.0000000   0.0000000   0.0000000   0.0000000   0.0000000   0.0000000   0.0000000   0.0000000   0.0000000   0.0000000
 NQMom=    0.0000000   0.0000000   0.0000000   0.0000000   0.0000000   0.0000000   0.0000000   0.0000000   0.0000000   0.0000000
 NMagM=    0.0000000   2.7928460   2.7928460   0.0000000   2.7928460   2.7928460   0.0000000   2.7928460   2.7928460   0.0000000
 AtZNuc=   8.0000000   1.0000000   1.0000000   8.0000000   1.0000000   1.0000000   8.0000000   1.0000000   1.0000000   8.0000000

  Atom       261         262         263         264         265         266         267         268         269         270
 IAtWgt=           1           1          16           1           1          16           1           1          16           1
 AtmWgt=   1.0078250   1.0078250  15.9949146   1.0078250   1.0078250  15.9949146   1.0078250   1.0078250  15.9949146   1.0078250
 NucSpn=           1           1           0           1           1           0           1           1           0           1
 AtZEff=   0.0000000   0.0000000   0.0000000   0.0000000   0.0000000   0.0000000   0.0000000   0.0000000   0.0000000   0.0000000
 NQMom=    0.0000000   0.0000000   0.0000000   0.0000000   0.0000000   0.0000000   0.0000000   0.0000000   0.0000000   0.0000000
 NMagM=    2.7928460   2.7928460   0.0000000   2.7928460   2.7928460   0.0000000   2.7928460   2.7928460   0.0000000   2.7928460
 AtZNuc=   1.0000000   1.0000000   8.0000000   1.0000000   1.0000000   8.0000000   1.0000000   1.0000000   8.0000000   1.0000000

  Atom       271         272         273         274         275         276         277         278         279         280
 IAtWgt=           1          16           1           1          16           1           1          16           1           1
 AtmWgt=   1.0078250  15.9949146   1.0078250   1.0078250  15.9949146   1.0078250   1.0078250  15.9949146   1.0078250   1.0078250
 NucSpn=           1           0           1           1           0           1           1           0           1           1
 AtZEff=   0.0000000   0.0000000   0.0000000   0.0000000   0.0000000   0.0000000   0.0000000   0.0000000   0.0000000   0.0000000
 NQMom=    0.0000000   0.0000000   0.0000000   0.0000000   0.0000000   0.0000000   0.0000000   0.0000000   0.0000000   0.0000000
 NMagM=    2.7928460   0.0000000   2.7928460   2.7928460   0.0000000   2.7928460   2.7928460   0.0000000   2.7928460   2.7928460
 AtZNuc=   1.0000000   8.0000000   1.0000000   1.0000000   8.0000000   1.0000000   1.0000000   8.0000000   1.0000000   1.0000000

  Atom       281         282         283         284         285         286         287         288         289         290
 IAtWgt=          16           1           1          16           1           1          16           1           1          16
 AtmWgt=  15.9949146   1.0078250   1.0078250  15.9949146   1.0078250   1.0078250  15.9949146   1.0078250   1.0078250  15.9949146
 NucSpn=           0           1           1           0           1           1           0           1           1           0
 AtZEff=   0.0000000   0.0000000   0.0000000   0.0000000   0.0000000   0.0000000   0.0000000   0.0000000   0.0000000   0.0000000
 NQMom=    0.0000000   0.0000000   0.0000000   0.0000000   0.0000000   0.0000000   0.0000000   0.0000000   0.0000000   0.0000000
 NMagM=    0.0000000   2.7928460   2.7928460   0.0000000   2.7928460   2.7928460   0.0000000   2.7928460   2.7928460   0.0000000
 AtZNuc=   8.0000000   1.0000000   1.0000000   8.0000000   1.0000000   1.0000000   8.0000000   1.0000000   1.0000000   8.0000000

  Atom       291         292         293         294         295         296         297         298         299         300
 IAtWgt=           1           1          16           1           1          16           1           1          16           1
 AtmWgt=   1.0078250   1.0078250  15.9949146   1.0078250   1.0078250  15.9949146   1.0078250   1.0078250  15.9949146   1.0078250
 NucSpn=           1           1           0           1           1           0           1           1           0           1
 AtZEff=   0.0000000   0.0000000   0.0000000   0.0000000   0.0000000   0.0000000   0.0000000   0.0000000   0.0000000   0.0000000
 NQMom=    0.0000000   0.0000000   0.0000000   0.0000000   0.0000000   0.0000000   0.0000000   0.0000000   0.0000000   0.0000000
 NMagM=    2.7928460   2.7928460   0.0000000   2.7928460   2.7928460   0.0000000   2.7928460   2.7928460   0.0000000   2.7928460
 AtZNuc=   1.0000000   1.0000000   8.0000000   1.0000000   1.0000000   8.0000000   1.0000000   1.0000000   8.0000000   1.0000000

  Atom       301         302         303         304         305         306         307         308         309         310
 IAtWgt=           1          16           1           1          16           1           1          16           1           1
 AtmWgt=   1.0078250  15.9949146   1.0078250   1.0078250  15.9949146   1.0078250   1.0078250  15.9949146   1.0078250   1.0078250
 NucSpn=           1           0           1           1           0           1           1           0           1           1
 AtZEff=   0.0000000   0.0000000   0.0000000   0.0000000   0.0000000   0.0000000   0.0000000   0.0000000   0.0000000   0.0000000
 NQMom=    0.0000000   0.0000000   0.0000000   0.0000000   0.0000000   0.0000000   0.0000000   0.0000000   0.0000000   0.0000000
 NMagM=    2.7928460   0.0000000   2.7928460   2.7928460   0.0000000   2.7928460   2.7928460   0.0000000   2.7928460   2.7928460
 AtZNuc=   1.0000000   8.0000000   1.0000000   1.0000000   8.0000000   1.0000000   1.0000000   8.0000000   1.0000000   1.0000000

  Atom       311         312         313         314         315         316         317         318         319         320
 IAtWgt=          16           1           1          16           1           1          16           1           1          16
 AtmWgt=  15.9949146   1.0078250   1.0078250  15.9949146   1.0078250   1.0078250  15.9949146   1.0078250   1.0078250  15.9949146
 NucSpn=           0           1           1           0           1           1           0           1           1           0
 AtZEff=   0.0000000   0.0000000   0.0000000   0.0000000   0.0000000   0.0000000   0.0000000   0.0000000   0.0000000   0.0000000
 NQMom=    0.0000000   0.0000000   0.0000000   0.0000000   0.0000000   0.0000000   0.0000000   0.0000000   0.0000000   0.0000000
 NMagM=    0.0000000   2.7928460   2.7928460   0.0000000   2.7928460   2.7928460   0.0000000   2.7928460   2.7928460   0.0000000
 AtZNuc=   8.0000000   1.0000000   1.0000000   8.0000000   1.0000000   1.0000000   8.0000000   1.0000000   1.0000000   8.0000000

  Atom       321         322         323         324         325         326         327         328         329         330
 IAtWgt=           1           1          16           1           1          16           1           1          16           1
 AtmWgt=   1.0078250   1.0078250  15.9949146   1.0078250   1.0078250  15.9949146   1.0078250   1.0078250  15.9949146   1.0078250
 NucSpn=           1           1           0           1           1           0           1           1           0           1
 AtZEff=   0.0000000   0.0000000   0.0000000   0.0000000   0.0000000   0.0000000   0.0000000   0.0000000   0.0000000   0.0000000
 NQMom=    0.0000000   0.0000000   0.0000000   0.0000000   0.0000000   0.0000000   0.0000000   0.0000000   0.0000000   0.0000000
 NMagM=    2.7928460   2.7928460   0.0000000   2.7928460   2.7928460   0.0000000   2.7928460   2.7928460   0.0000000   2.7928460
 AtZNuc=   1.0000000   1.0000000   8.0000000   1.0000000   1.0000000   8.0000000   1.0000000   1.0000000   8.0000000   1.0000000

  Atom       331         332         333         334         335         336         337         338         339         340
 IAtWgt=           1          16           1           1          16           1           1          16           1           1
 AtmWgt=   1.0078250  15.9949146   1.0078250   1.0078250  15.9949146   1.0078250   1.0078250  15.9949146   1.0078250   1.0078250
 NucSpn=           1           0           1           1           0           1           1           0           1           1
 AtZEff=   0.0000000   0.0000000   0.0000000   0.0000000   0.0000000   0.0000000   0.0000000   0.0000000   0.0000000   0.0000000
 NQMom=    0.0000000   0.0000000   0.0000000   0.0000000   0.0000000   0.0000000   0.0000000   0.0000000   0.0000000   0.0000000
 NMagM=    2.7928460   0.0000000   2.7928460   2.7928460   0.0000000   2.7928460   2.7928460   0.0000000   2.7928460   2.7928460
 AtZNuc=   1.0000000   8.0000000   1.0000000   1.0000000   8.0000000   1.0000000   1.0000000   8.0000000   1.0000000   1.0000000

  Atom       341         342         343         344         345         346         347         348         349         350
 IAtWgt=          16           1           1          16           1           1          16           1           1          16
 AtmWgt=  15.9949146   1.0078250   1.0078250  15.9949146   1.0078250   1.0078250  15.9949146   1.0078250   1.0078250  15.9949146
 NucSpn=           0           1           1           0           1           1           0           1           1           0
 AtZEff=   0.0000000   0.0000000   0.0000000   0.0000000   0.0000000   0.0000000   0.0000000   0.0000000   0.0000000   0.0000000
 NQMom=    0.0000000   0.0000000   0.0000000   0.0000000   0.0000000   0.0000000   0.0000000   0.0000000   0.0000000   0.0000000
 NMagM=    0.0000000   2.7928460   2.7928460   0.0000000   2.7928460   2.7928460   0.0000000   2.7928460   2.7928460   0.0000000
 AtZNuc=   8.0000000   1.0000000   1.0000000   8.0000000   1.0000000   1.0000000   8.0000000   1.0000000   1.0000000   8.0000000

  Atom       351         352         353         354         355         356         357         358         359         360
 IAtWgt=           1           1          16           1           1          16           1           1          16           1
 AtmWgt=   1.0078250   1.0078250  15.9949146   1.0078250   1.0078250  15.9949146   1.0078250   1.0078250  15.9949146   1.0078250
 NucSpn=           1           1           0           1           1           0           1           1           0           1
 AtZEff=   0.0000000   0.0000000   0.0000000   0.0000000   0.0000000   0.0000000   0.0000000   0.0000000   0.0000000   0.0000000
 NQMom=    0.0000000   0.0000000   0.0000000   0.0000000   0.0000000   0.0000000   0.0000000   0.0000000   0.0000000   0.0000000
 NMagM=    2.7928460   2.7928460   0.0000000   2.7928460   2.7928460   0.0000000   2.7928460   2.7928460   0.0000000   2.7928460
 AtZNuc=   1.0000000   1.0000000   8.0000000   1.0000000   1.0000000   8.0000000   1.0000000   1.0000000   8.0000000   1.0000000

  Atom       361         362         363         364         365         366         367         368         369         370
 IAtWgt=           1          16           1           1          16           1           1          16           1           1
 AtmWgt=   1.0078250  15.9949146   1.0078250   1.0078250  15.9949146   1.0078250   1.0078250  15.9949146   1.0078250   1.0078250
 NucSpn=           1           0           1           1           0           1           1           0           1           1
 AtZEff=   0.0000000   0.0000000   0.0000000   0.0000000   0.0000000   0.0000000   0.0000000   0.0000000   0.0000000   0.0000000
 NQMom=    0.0000000   0.0000000   0.0000000   0.0000000   0.0000000   0.0000000   0.0000000   0.0000000   0.0000000   0.0000000
 NMagM=    2.7928460   0.0000000   2.7928460   2.7928460   0.0000000   2.7928460   2.7928460   0.0000000   2.7928460   2.7928460
 AtZNuc=   1.0000000   8.0000000   1.0000000   1.0000000   8.0000000   1.0000000   1.0000000   8.0000000   1.0000000   1.0000000

  Atom       371         372         373         374         375         376         377         378         379         380
 IAtWgt=          16           1           1          16           1           1          16           1           1          16
 AtmWgt=  15.9949146   1.0078250   1.0078250  15.9949146   1.0078250   1.0078250  15.9949146   1.0078250   1.0078250  15.9949146
 NucSpn=           0           1           1           0           1           1           0           1           1           0
 AtZEff=   0.0000000   0.0000000   0.0000000   0.0000000   0.0000000   0.0000000   0.0000000   0.0000000   0.0000000   0.0000000
 NQMom=    0.0000000   0.0000000   0.0000000   0.0000000   0.0000000   0.0000000   0.0000000   0.0000000   0.0000000   0.0000000
 NMagM=    0.0000000   2.7928460   2.7928460   0.0000000   2.7928460   2.7928460   0.0000000   2.7928460   2.7928460   0.0000000
 AtZNuc=   8.0000000   1.0000000   1.0000000   8.0000000   1.0000000   1.0000000   8.0000000   1.0000000   1.0000000   8.0000000

  Atom       381         382         383         384         385
 IAtWgt=           1           1          16           1           1
 AtmWgt=   1.0078250   1.0078250  15.9949146   1.0078250   1.0078250
 NucSpn=           1           1           0           1           1
 AtZEff=   0.0000000   0.0000000   0.0000000   0.0000000   0.0000000
 NQMom=    0.0000000   0.0000000   0.0000000   0.0000000   0.0000000
 NMagM=    2.7928460   2.7928460   0.0000000   2.7928460   2.7928460
 AtZNuc=   1.0000000   1.0000000   8.0000000   1.0000000   1.0000000
 Leave Link  101 at Sat May  5 18:59:02 2018, MaxMem= 14763950080 cpu:        37.8
 (Enter /cm/shared/gaussian/g09.e01/intel64-sandybridge/g09/l103.exe)

 GradGradGradGradGradGradGradGradGradGradGradGradGradGradGradGradGradGrad
 Berny optimization.
 Initialization pass.
 Trust Radius=3.00D-01 FncErr=1.00D-07 GrdErr=1.00D-07
 Number of steps in this run=      2 maximum allowed number of steps=      2.
 GradGradGradGradGradGradGradGradGradGradGradGradGradGradGradGradGradGrad

 Leave Link  103 at Sat May  5 18:59:02 2018, MaxMem= 14763950080 cpu:         6.2
 (Enter /cm/shared/gaussian/g09.e01/intel64-sandybridge/g09/l202.exe)
 Symmetry turned off by external request.
 Stoichiometry    BrH256O128(1-)
 Framework group  C1[X(BrH256O128)]
 Deg. of freedom  1149
 Full point group                 C1      NOp   1
                          Input orientation:                          
 ---------------------------------------------------------------------
 Center     Atomic      Atomic             Coordinates (Angstroms)
 Number     Number       Type             X           Y           Z
 ---------------------------------------------------------------------
      1         35           0       20.000000   20.000000   20.000000
      2          8           0       22.610000   20.970000   18.510000
      3          1           0       22.240000   21.650000   17.950000
      4          1           0       21.860000   20.460000   18.810000
      5          8           0       21.940000   17.740000   21.310000
      6          1           0       22.720000   18.190000   20.980000
      7          1           0       21.200000   18.230000   20.950000
      8          8           0       18.210000   18.650000   17.530000
      9          1           0       18.660000   19.030000   18.280000
     10          1           0       18.710000   17.860000   17.320000
     11          8           0       22.420000   21.210000   21.760000
     12          1           0       21.710000   21.740000   22.130000
     13          1           0       21.990000   20.560000   21.210000
     14          8           0       17.950000   22.250000   21.210000
     15          1           0       18.720000   22.780000   21.020000
     16          1           0       18.250000   21.350000   21.080000
     17          8           0       18.150000   19.660000   22.920000
     18          1           0       18.820000   19.770000   22.240000
     19          1           0       17.710000   20.510000   22.960000
     20          8           0       17.670000   21.780000   18.000000
     21          1           0       18.320000   21.660000   18.690000
     22          1           0       18.040000   21.330000   17.240000
     23          8           0       15.970000   19.660000   19.660000
     24          1           0       16.660000   19.290000   19.110000
     25          1           0       15.200000   19.660000   19.100000
     26          8           0       19.930000   23.870000   19.260000
     27          1           0       19.860000   24.610000   19.870000
     28          1           0       20.760000   23.450000   19.510000
     29          8           0       19.280000   16.430000   20.520000
     30          1           0       18.420000   16.570000   20.900000
     31          1           0       19.890000   16.550000   21.240000
     32          8           0       20.350000   16.670000   18.030000
     33          1           0       20.910000   15.920000   17.820000
     34          1           0       20.000000   16.470000   18.900000
     35          8           0       24.180000   19.240000   19.910000
     36          1           0       23.730000   19.750000   19.230000
     37          1           0       24.980000   19.730000   20.080000
     38          8           0       21.030000   22.750000   17.010000
     39          1           0       20.210000   22.980000   17.450000
     40          1           0       20.750000   22.310000   16.210000
     41          8           0       17.620000   16.920000   22.690000
     42          1           0       17.530000   17.880000   22.660000
     43          1           0       17.780000   16.730000   23.610000
     44          8           0       20.490000   23.050000   22.880000
     45          1           0       20.950000   23.880000   22.780000
     46          1           0       20.310000   22.990000   23.820000
     47          8           0       20.930000   20.510000   15.410000
     48          1           0       20.990000   19.590000   15.690000
     49          1           0       21.290000   20.510000   14.520000
     50          8           0       23.370000   16.790000   18.540000
     51          1           0       22.610000   16.970000   17.980000
     52          1           0       23.730000   17.660000   18.730000
     53          8           0       23.880000   19.300000   23.740000
     54          1           0       23.400000   19.710000   23.020000
     55          1           0       24.610000   19.910000   23.910000
     56          8           0       21.080000   17.810000   15.420000
     57          1           0       20.520000   17.480000   16.130000
     58          1           0       21.880000   17.280000   15.490000
     59          8           0       21.890000   15.020000   21.230000
     60          1           0       21.870000   15.970000   21.390000
     61          1           0       22.060000   14.940000   20.290000
     62          8           0       17.640000   19.940000   15.060000
     63          1           0       17.900000   19.510000   15.870000
     64          1           0       18.430000   19.950000   14.520000
     65          8           0       15.180000   20.880000   21.820000
     66          1           0       16.000000   21.280000   22.110000
     67          1           0       15.400000   20.450000   20.990000
     68          8           0       14.900000   21.710000   17.940000
     69          1           0       15.750000   21.430000   18.260000
     70          1           0       14.800000   21.280000   17.090000
     71          8           0       24.030000   23.130000   22.850000
     72          1           0       23.480000   22.520000   22.350000
     73          1           0       24.550000   22.570000   23.430000
     74          8           0       16.110000   16.470000   17.250000
     75          1           0       16.560000   17.250000   17.570000
     76          1           0       15.460000   16.800000   16.640000
     77          8           0       21.760000   17.000000   24.610000
     78          1           0       21.290000   16.800000   23.790000
     79          1           0       22.670000   17.080000   24.340000
     80          8           0       15.670000   24.230000   18.760000
     81          1           0       16.380000   23.600000   18.890000
     82          1           0       14.920000   23.690000   18.520000
     83          8           0       16.820000   24.920000   22.080000
     84          1           0       17.070000   24.000000   22.000000
     85          1           0       17.030000   25.140000   22.990000
     86          8           0       24.090000   23.830000   20.040000
     87          1           0       24.060000   23.430000   20.920000
     88          1           0       23.790000   24.720000   20.180000
     89          8           0       24.990000   22.620000   17.650000
     90          1           0       24.390000   22.740000   18.390000
     91          1           0       25.300000   21.720000   17.740000
     92          8           0       23.350000   22.240000   15.010000
     93          1           0       24.110000   21.730000   14.730000
     94          1           0       23.000000   21.750000   15.760000
     95          8           0       21.050000   21.730000   25.520000
     96          1           0       21.430000   20.850000   25.450000
     97          1           0       21.730000   22.260000   25.920000
     98          8           0       18.860000   20.640000   26.450000
     99          1           0       18.760000   19.940000   25.810000
    100          1           0       19.700000   21.040000   26.250000
    101          8           0       22.970000   24.860000   16.970000
    102          1           0       22.040000   24.640000   16.850000
    103          1           0       23.420000   24.020000   16.940000
    104          8           0       16.590000   22.040000   24.600000
    105          1           0       16.100000   21.720000   25.360000
    106          1           0       17.250000   22.630000   24.970000
    107          8           0       26.240000   17.780000   22.080000
    108          1           0       26.020000   17.560000   22.980000
    109          1           0       25.410000   17.700000   21.600000
    110          8           0       22.250000   19.190000   25.860000
    111          1           0       23.020000   19.370000   25.310000
    112          1           0       21.990000   18.300000   25.630000
    113          8           0       21.700000   25.570000   22.350000
    114          1           0       21.110000   25.870000   21.660000
    115          1           0       22.570000   25.790000   22.020000
    116          8           0       24.150000   14.330000   19.510000
    117          1           0       24.060000   15.260000   19.300000
    118          1           0       24.950000   14.060000   19.080000
    119          8           0       19.050000   23.460000   14.690000
    120          1           0       18.320000   23.740000   15.240000
    121          1           0       18.760000   22.620000   14.320000
    122          8           0       24.550000   18.350000   15.980000
    123          1           0       25.460000   18.130000   16.180000
    124          1           0       24.110000   17.510000   15.880000
    125          8           0       20.060000   26.440000   20.420000
    126          1           0       20.280000   27.190000   19.860000
    127          1           0       19.130000   26.290000   20.260000
    128          8           0       13.290000   18.970000   22.220000
    129          1           0       14.010000   19.590000   22.160000
    130          1           0       13.160000   18.660000   21.330000
    131          8           0       20.600000   13.960000   23.770000
    132          1           0       21.110000   14.050000   22.960000
    133          1           0       19.930000   14.640000   23.710000
    134          8           0       17.220000   26.390000   19.860000
    135          1           0       16.940000   25.720000   19.230000
    136          1           0       17.080000   25.990000   20.720000
    137          8           0       18.730000   12.830000   19.690000
    138          1           0       17.990000   12.370000   20.090000
    139          1           0       18.910000   13.560000   20.280000
    140          8           0       21.990000   14.000000   18.000000
    141          1           0       22.190000   14.090000   17.070000
    142          1           0       22.840000   14.020000   18.440000
    143          8           0       26.610000   20.700000   20.520000
    144          1           0       26.570000   20.860000   19.580000
    145          1           0       27.490000   20.980000   20.770000
    146          8           0       17.870000   13.880000   22.680000
    147          1           0       17.190000   14.540000   22.530000
    148          1           0       18.330000   14.180000   23.470000
    149          8           0       22.880000   15.720000   15.730000
    150          1           0       22.280000   15.300000   15.120000
    151          1           0       23.720000   15.310000   15.560000
    152          8           0       19.770000   17.130000   26.850000
    153          1           0       20.210000   16.960000   26.020000
    154          1           0       20.450000   17.500000   27.420000
    155          8           0       26.100000   20.840000   23.490000
    156          1           0       26.930000   21.100000   23.860000
    157          1           0       26.210000   20.960000   22.540000
    158          8           0       22.840000   18.270000   13.120000
    159          1           0       23.430000   17.570000   13.370000
    160          1           0       22.170000   18.280000   13.800000
    161          8           0       21.090000   25.410000   14.760000
    162          1           0       21.070000   25.220000   13.820000
    163          1           0       20.540000   24.740000   15.150000
    164          8           0       26.430000   20.220000   17.750000
    165          1           0       26.090000   19.860000   16.930000
    166          1           0       27.150000   19.650000   17.990000
    167          8           0       17.860000   24.890000   24.520000
    168          1           0       17.600000   25.650000   25.040000
    169          1           0       18.600000   24.520000   25.010000
    170          8           0       13.100000   23.220000   21.130000
    171          1           0       12.350000   22.930000   20.600000
    172          1           0       13.610000   22.420000   21.280000
    173          8           0       18.090000   15.470000   25.020000
    174          1           0       18.470000   15.410000   25.900000
    175          1           0       17.180000   15.730000   25.180000
    176          8           0       19.530000   19.140000   13.030000
    177          1           0       20.140000   19.860000   12.920000
    178          1           0       20.000000   18.370000   12.720000
    179          8           0       25.290000   20.410000   14.380000
    180          1           0       24.900000   19.740000   14.940000
    181          1           0       26.050000   19.970000   13.990000
    182          8           0       12.950000   19.630000   19.050000
    183          1           0       12.300000   19.390000   18.390000
    184          1           0       12.510000   20.280000   19.600000
    185          8           0       17.280000   25.550000   16.050000
    186          1           0       16.580000   25.290000   16.640000
    187          1           0       17.130000   26.480000   15.900000
    188          8           0       16.020000   18.090000   13.480000
    189          1           0       15.410000   17.870000   14.190000
    190          1           0       16.530000   18.820000   13.830000
    191          8           0       18.040000   14.940000   14.730000
    192          1           0       18.150000   14.500000   15.570000
    193          1           0       17.370000   15.610000   14.890000
    194          8           0       24.560000   14.020000   22.270000
    195          1           0       24.590000   14.050000   21.310000
    196          1           0       23.640000   14.140000   22.490000
    197          8           0       19.720000   27.010000   16.710000
    198          1           0       20.210000   26.610000   15.990000
    199          1           0       18.890000   26.540000   16.730000
    200          8           0       16.220000   20.940000   12.540000
    201          1           0       16.950000   21.130000   11.950000
    202          1           0       16.610000   20.980000   13.420000
    203          8           0       15.610000   16.560000   25.330000
    204          1           0       15.510000   16.060000   24.520000
    205          1           0       14.920000   17.220000   25.300000
    206          8           0       25.850000   25.350000   22.400000
    207          1           0       25.500000   24.460000   22.450000
[...]
   Z335      50.77694   0.00619   0.00000  -0.00007   0.00045  50.77739
   X336      37.56776   0.00159   0.00000   0.00297   0.00266  37.57042
   Y336      50.39900   0.00288   0.00000   0.00210   0.00145  50.40044
   Z336      50.66356  -0.00149   0.00000  -0.00199  -0.00137  50.66219
   X337      39.81653   0.01109   0.00000   0.00531   0.00505  39.82158
   Y337      48.81163   0.00165   0.00000   0.00069   0.00013  48.81176
   Z337      49.86987  -0.00892   0.00000  -0.00749  -0.00695  49.86292
   X338      32.97572   0.01490   0.00000   0.00962   0.00996  32.98568
   Y338      30.80254  -0.01871   0.00000  -0.01235  -0.01142  30.79112
   Z338      22.33656   0.00195   0.00000   0.00248   0.00190  22.33846
   X339      32.61667  -0.00352   0.00000  -0.00151  -0.00118  32.61549
   Y339      31.48284   0.01050   0.00000   0.01012   0.01115  31.49398
   Z339      20.71140  -0.00967   0.00000  -0.00351  -0.00405  20.70735
   X340      32.08755  -0.01047   0.00000  -0.00747  -0.00716  32.08039
   Y340      31.87968   0.01318   0.00000   0.00873   0.00957  31.88925
   Z340      23.48930   0.00845   0.00000   0.00406   0.00354  23.49284
   X341      25.47351   0.00028   0.00000  -0.00256  -0.00263  25.47087
   Y341      45.71248   0.02659   0.00000   0.02354   0.02384  45.73632
   Z341      29.61201   0.01125   0.00000   0.00434   0.00462  29.61663
   X342      24.43416  -0.00313   0.00000   0.00133   0.00128  24.43543
   Y342      44.55974  -0.00608   0.00000  -0.00089  -0.00067  44.55907
   Z342      30.53797   0.00353   0.00000   0.00239   0.00260  30.54057
   X343      25.88925   0.00623   0.00000   0.00768   0.00764  25.89688
   Y343      44.84320  -0.01349   0.00000  -0.01045  -0.01004  44.83316
   Z343      28.10023  -0.01133   0.00000  -0.00103  -0.00080  28.09942
   X344      32.06865  -0.00997   0.00000  -0.00260  -0.00292  32.06573
   Y344      54.51860   0.00103   0.00000  -0.00335  -0.00318  54.51542
   Z344      34.56309  -0.02145   0.00000  -0.02234  -0.02150  34.54159
   X345      33.54264   0.01001   0.00000   0.00349   0.00314  33.54578
   Y345      54.97213  -0.00341   0.00000  -0.00825  -0.00810  54.96404
   Z345      35.48906   0.01022   0.00000   0.00593   0.00681  35.49586
   X346      31.42615  -0.00061   0.00000  -0.00107  -0.00136  31.42478
   Y346      53.04461  -0.00022   0.00000   0.00620   0.00630  53.05092
   Z346      35.41347   0.01076   0.00000   0.01304   0.01379  35.42726
   X347      33.93948  -0.01538   0.00000  -0.01045  -0.01024  33.92924
   Y347      36.45282  -0.00027   0.00000  -0.00214  -0.00103  36.45179
   Z347      19.78543  -0.01417   0.00000  -0.00792  -0.00816  19.77727
   X348      34.43081   0.00753   0.00000   0.00540   0.00561  34.43642
   Y348      36.11267  -0.00233   0.00000  -0.00168  -0.00066  36.11200
   Z348      21.48619   0.01610   0.00000   0.00981   0.00956  21.49574
   X349      35.43236   0.00929   0.00000   0.00705   0.00725  35.43961
   Y349      37.11422   0.00193   0.00000  -0.00079   0.00040  37.11462
   Z349      19.01064   0.00039   0.00000   0.00313   0.00294  19.01359
   X350      20.39014  -0.00548   0.00000   0.00341   0.00345  20.39360
   Y350      38.98505   0.00449   0.00000  -0.00124  -0.00171  38.98334
   Z350      40.19447  -0.01867   0.00000  -0.01716  -0.01731  40.17717
   X351      21.41060   0.01300   0.00000   0.01180   0.01185  21.42245
   Y351      38.22916  -0.00665   0.00000  -0.00166  -0.00218  38.22698
   Z351      41.47949   0.01272   0.00000   0.00714   0.00695  41.48643
   X352      18.87836   0.00145   0.00000   0.00138   0.00145  18.87981
   Y352      37.96460   0.00140   0.00000   0.00288   0.00237  37.96697
   Z352      40.15668   0.00277   0.00000   0.00459   0.00437  40.16105
   X353      50.22892  -0.00344   0.00000   0.00374   0.00392  50.23284
   Y353      32.31432   0.00775   0.00000   0.01410   0.01395  32.32827
   Z353      47.67779  -0.00862   0.00000  -0.00811  -0.00852  47.66928
   X354      51.81629   0.00890   0.00000   0.00539   0.00559  51.82188
   Y354      31.48284  -0.00676   0.00000  -0.00657  -0.00669  31.47614
   Z354      47.88566   0.00089   0.00000   0.00072   0.00028  47.88594
   X355      50.15333  -0.00188   0.00000  -0.00301  -0.00288  50.15046
   Y355      33.48595   0.00709   0.00000   0.00803   0.00779  33.49374
   Z355      49.05729   0.00687   0.00000   0.00695   0.00662  49.06391
   X356      35.16780  -0.00340   0.00000  -0.00166  -0.00127  35.16653
   Y356      23.64047   0.00838   0.00000   0.00517   0.00459  23.64507
   Z356      48.20691   0.01168   0.00000   0.00885   0.00785  48.21476
   X357      36.39613   0.01057   0.00000   0.00884   0.00924  36.40536
   Y357      23.69717   0.00161   0.00000   0.00374   0.00328  23.70044
   Z357      46.88411  -0.00815   0.00000  -0.00243  -0.00342  46.88068
   X358      34.31743  -0.00464   0.00000  -0.00371  -0.00328  34.31415
   Y358      22.07200  -0.00894   0.00000  -0.00534  -0.00592  22.06608
   Z358      47.96125  -0.00309   0.00000  -0.00256  -0.00366  47.95758
   X359      40.17558   0.01514   0.00000   0.01369   0.01355  40.18913
   Y359      42.76450  -0.00100   0.00000   0.00511   0.00424  42.76875
   Z359      55.25559  -0.00707   0.00000  -0.00798  -0.00781  55.24779
   X360      39.24961  -0.00573   0.00000  -0.00188  -0.00204  39.24758
   Y360      43.53929   0.00367   0.00000   0.00155   0.00057  43.53986
   Z360      56.59730   0.00574   0.00000   0.00119   0.00140  56.59870
   X361      38.92836  -0.00439   0.00000  -0.00208  -0.00220  38.92616
   Y361      42.46215  -0.00266   0.00000  -0.00407  -0.00489  42.45726
   Z361      53.97058  -0.00203   0.00000  -0.00005   0.00010  53.97068
   X362      21.75075   0.00456   0.00000  -0.00128  -0.00125  21.74950
   Y362      41.36611  -0.00166   0.00000  -0.00429  -0.00416  41.36195
   Z362      30.87813  -0.00416   0.00000   0.00142   0.00141  30.87954
   X363      21.86413   0.00279   0.00000   0.00383   0.00387  21.86800
   Y363      40.55352  -0.00286   0.00000   0.00006   0.00010  40.55362
   Z363      32.48439   0.01384   0.00000   0.01565   0.01560  32.50000
   X364      20.06889  -0.01081   0.00000  -0.00918  -0.00917  20.05973
   Y364      42.00861   0.00576   0.00000   0.00620   0.00629  42.01490
   Z364      30.80254  -0.00204   0.00000  -0.00274  -0.00271  30.79983
   X365      46.61954  -0.01010   0.00000  -0.00560  -0.00526  46.61429
   Y365      30.25452   0.01846   0.00000   0.01252   0.01366  30.26817
   Z365      24.83100  -0.00224   0.00000   0.00120   0.00066  24.83166
   X366      47.03528   0.00045   0.00000  -0.00437  -0.00399  47.03129
   Y366      29.00730  -0.00781   0.00000  -0.00278  -0.00157  29.00573
   Z366      23.60268  -0.00850   0.00000  -0.00562  -0.00624  23.59644
   X367      47.43213   0.00913   0.00000   0.00786   0.00821  47.44034
   Y367      29.68760  -0.00843   0.00000  -0.00901  -0.00795  29.67964
   Z367      26.34278   0.01112   0.00000   0.00680   0.00623  26.34901
   X368      41.57397  -0.00685   0.00000  -0.00202  -0.00176  41.57221
   Y368      34.50640   0.01410   0.00000   0.00772   0.00903  34.51543
   Z368      19.78543  -0.02395   0.00000  -0.01474  -0.01505  19.77038
   X369      41.06375  -0.00259   0.00000  -0.00258  -0.00228  41.06147
   Y369      32.80565  -0.01025   0.00000  -0.00724  -0.00593  32.79972
   Z369      19.48308  -0.00015   0.00000  -0.00049  -0.00091  19.48216
   X370      42.36766   0.00452   0.00000  -0.00549  -0.00524  42.36242
   Y370      34.46860  -0.00422   0.00000  -0.00508  -0.00385  34.46475
   Z370      21.39170   0.02600   0.00000   0.01979   0.01948  21.41118
   X371      34.18515   0.00869   0.00000   0.00630   0.00632  34.19147
   Y371      43.31252  -0.01259   0.00000  -0.01011  -0.00911  43.30341
   Z371      21.73185  -0.00507   0.00000  -0.00732  -0.00714  21.72471
   X372      35.43236  -0.00038   0.00000  -0.00313  -0.00314  35.42922
   Y372      44.61643   0.00645   0.00000   0.00548   0.00650  44.62293
   Z372      21.88303   0.00313   0.00000   0.00491   0.00517  21.88820
   X373      32.59778  -0.00789   0.00000  -0.00248  -0.00248  32.59530
   Y373      44.16290   0.00556   0.00000   0.00052   0.00147  44.16437
   Z373      21.90193   0.00789   0.00000   0.01294   0.01317  21.91509
   X374      45.27784  -0.00672   0.00000  -0.00440  -0.00427  45.27356
   Y374      39.47638   0.01059   0.00000   0.00523   0.00652  39.48290
   Z374      21.67516  -0.01048   0.00000  -0.00828  -0.00828  21.66688
   X375      46.56285   0.00243   0.00000  -0.00499  -0.00488  46.55798
   Y375      39.72204  -0.00070   0.00000  -0.00202  -0.00078  39.72127
   Z375      22.92238   0.01158   0.00000   0.01209   0.01212  22.93449
   X376      44.93769  -0.00243   0.00000  -0.00369  -0.00352  44.93416
   Y376      37.70004  -0.00958   0.00000  -0.00648  -0.00521  37.69483
   Z376      21.73185   0.00233   0.00000   0.00267   0.00257  21.73442
   X377      26.87191   0.00964   0.00000   0.01432   0.01410  26.88601
   Y377      50.75804   0.01031   0.00000   0.00010   0.00036  50.75841
   Z377      30.95371  -0.00234   0.00000  -0.00476  -0.00417  30.94955
   X378      26.51286  -0.00793   0.00000  -0.01103  -0.01119  26.50167
   Y378      49.00060  -0.01660   0.00000  -0.01314  -0.01287  48.98773
   Z378      30.68915  -0.00382   0.00000  -0.00522  -0.00474  30.68441
   X379      27.13647  -0.00142   0.00000  -0.00219  -0.00241  27.13406
   Y379      51.40055   0.00199   0.00000   0.00409   0.00446  51.40501
   Z379      29.27186   0.00030   0.00000  -0.00273  -0.00210  29.26976
   X380      21.29721   0.00185   0.00000  -0.00007   0.00017  21.29738
   Y380      32.12534  -0.00100   0.00000   0.00090   0.00067  32.12601
   Z380      36.81187  -0.00364   0.00000   0.00042  -0.00015  36.81172
   X381      20.73030  -0.00001   0.00000  -0.00027  -0.00006  20.73024
   Y381      33.27808  -0.00131   0.00000  -0.00235  -0.00252  33.27556
   Z381      35.52685  -0.00193   0.00000  -0.00282  -0.00332  35.52353
   X382      20.52243  -0.00273   0.00000  -0.00207  -0.00186  20.52056
   Y382      32.74895   0.00320   0.00000   0.00381   0.00346  32.75241
   Z382      38.32365   0.00722   0.00000   0.00711   0.00659  38.33023
   X383      38.51262  -0.00540   0.00000  -0.00717  -0.00757  38.50504
   Y383      56.25715   0.01125   0.00000   0.00815   0.00811  56.26526
   Z383      40.81808  -0.00207   0.00000  -0.00461  -0.00363  40.81445
   X384      38.96615   0.00529   0.00000   0.00721   0.00683  38.97299
   Y384      54.83985  -0.00343   0.00000   0.00346   0.00337  54.84322
   Z384      41.85743   0.00517   0.00000   0.00290   0.00380  41.86123
   X385      38.26695   0.00019   0.00000   0.00123   0.00085  38.26781
   Y385      55.53905  -0.00422   0.00000  -0.00482  -0.00476  55.53429
   Z385      39.17402  -0.00603   0.00000  -0.00663  -0.00569  39.16833
         Item               Value     Threshold  Converged?
 Maximum Force            0.040730     0.000450     NO 
 RMS     Force            0.010328     0.000300     NO 
 Maximum Displacement     0.029566     0.001800     NO 
 RMS     Displacement     0.008832     0.001200     NO 
 Predicted change in Energy=-7.112778D-02
 GradGradGradGradGradGradGradGradGradGradGradGradGradGradGradGradGradGrad

 Leave Link  103 at Sat May  5 21:57:48 2018, MaxMem= 14763950080 cpu:      2967.4
 (Enter /cm/shared/gaussian/g09.e01/intel64-sandybridge/g09/l9999.exe)
 1\1\GINC-POPLE07\Force\RPBE1PBE\CC-pVDZ\Br1H256O128(1-)\M.PELUSO\05-Ma
 y-2018\0\\#p PBE1PBE/cc-pvDZ force Counterpoise=2 noSymm\\forces on ch
 loride comput - NWATER: 128\\-1,1\Br,20.,20.,20.\O,22.61,20.97,18.51\H
 ,22.24,21.65,17.95\H,21.86,20.46,18.81\O,21.94,17.74,21.31\H,22.72,18.
 19,20.98\H,21.2,18.23,20.95\O,18.21,18.65,17.53\H,18.66,19.03,18.28\H,
 18.71,17.86,17.32\O,22.42,21.21,21.76\H,21.71,21.74,22.13\H,21.99,20.5
 6,21.21\O,17.95,22.25,21.21\H,18.72,22.78,21.02\H,18.25,21.35,21.08\O,
 18.15,19.66,22.92\H,18.82,19.77,22.24\H,17.71,20.51,22.96\O,17.67,21.7
 8,18.\H,18.32,21.66,18.69\H,18.04,21.33,17.24\O,15.97,19.66,19.66\H,16
 .66,19.29,19.11\H,15.2,19.66,19.1\O,19.93,23.87,19.26\H,19.86,24.61,19
 .87\H,20.76,23.45,19.51\O,19.28,16.43,20.52\H,18.42,16.57,20.9\H,19.89
 ,16.55,21.24\O,20.35,16.67,18.03\H,20.91,15.92,17.82\H,20.,16.47,18.9\
 O,24.18,19.24,19.91\H,23.73,19.75,19.23\H,24.98,19.73,20.08\O,21.03,22
 .75,17.01\H,20.21,22.98,17.45\H,20.75,22.31,16.21\O,17.62,16.92,22.69\
 H,17.53,17.88,22.66\H,17.78,16.73,23.61\O,20.49,23.05,22.88\H,20.95,23
 .88,22.78\H,20.31,22.99,23.82\O,20.93,20.51,15.41\H,20.99,19.59,15.69\
 H,21.29,20.51,14.52\O,23.37,16.79,18.54\H,22.61,16.97,17.98\H,23.73,17
 .66,18.73\O,23.88,19.3,23.74\H,23.4,19.71,23.02\H,24.61,19.91,23.91\O,
 21.08,17.81,15.42\H,20.52,17.48,16.13\H,21.88,17.28,15.49\O,21.89,15.0
 2,21.23\H,21.87,15.97,21.39\H,22.06,14.94,20.29\O,17.64,19.94,15.06\H,
 17.9,19.51,15.87\H,18.43,19.95,14.52\O,15.18,20.88,21.82\H,16.,21.28,2
 2.11\H,15.4,20.45,20.99\O,14.9,21.71,17.94\H,15.75,21.43,18.26\H,14.8,
 21.28,17.09\O,24.03,23.13,22.85\H,23.48,22.52,22.35\H,24.55,22.57,23.4
 3\O,16.11,16.47,17.25\H,16.56,17.25,17.57\H,15.46,16.8,16.64\O,21.76,1
 7.,24.61\H,21.29,16.8,23.79\H,22.67,17.08,24.34\O,15.67,24.23,18.76\H,
 16.38,23.6,18.89\H,14.92,23.69,18.52\O,16.82,24.92,22.08\H,17.07,24.,2
 2.\H,17.03,25.14,22.99\O,24.09,23.83,20.04\H,24.06,23.43,20.92\H,23.79
 ,24.72,20.18\O,24.99,22.62,17.65\H,24.39,22.74,18.39\H,25.3,21.72,17.7
 4\O,23.35,22.24,15.01\H,24.11,21.73,14.73\H,23.,21.75,15.76\O,21.05,21
 .73,25.52\H,21.43,20.85,25.45\H,21.73,22.26,25.92\O,18.86,20.64,26.45\
 H,18.76,19.94,25.81\H,19.7,21.04,26.25\O,22.97,24.86,16.97\H,22.04,24.
 64,16.85\H,23.42,24.02,16.94\O,16.59,22.04,24.6\H,16.1,21.72,25.36\H,1
 7.25,22.63,24.97\O,26.24,17.78,22.08\H,26.02,17.56,22.98\H,25.41,17.7,
 21.6\O,22.25,19.19,25.86\H,23.02,19.37,25.31\H,21.99,18.3,25.63\O,21.7
 ,25.57,22.35\H,21.11,25.87,21.66\H,22.57,25.79,22.02\O,24.15,14.33,19.
 51\H,24.06,15.26,19.3\H,24.95,14.06,19.08\O,19.05,23.46,14.69\H,18.32,
 23.74,15.24\H,18.76,22.62,14.32\O,24.55,18.35,15.98\H,25.46,18.13,16.1
 8\H,24.11,17.51,15.88\O,20.06,26.44,20.42\H,20.28,27.19,19.86\H,19.13,
 26.29,20.26\O,13.29,18.97,22.22\H,14.01,19.59,22.16\H,13.16,18.66,21.3
 3\O,20.6,13.96,23.77\H,21.11,14.05,22.96\H,19.93,14.64,23.71\O,17.22,2
 6.39,19.86\H,16.94,25.72,19.23\H,17.08,25.99,20.72\O,18.73,12.83,19.69
 \H,17.99,12.37,20.09\H,18.91,13.56,20.28\O,21.99,14.,18.\H,22.19,14.09
 ,17.07\H,22.84,14.02,18.44\O,26.61,20.7,20.52\H,26.57,20.86,19.58\H,27
 .49,20.98,20.77\O,17.87,13.88,22.68\H,17.19,14.54,22.53\H,18.33,14.18,
 23.47\O,22.88,15.72,15.73\H,22.28,15.3,15.12\H,23.72,15.31,15.56\O,19.
 77,17.13,26.85\H,20.21,16.96,26.02\H,20.45,17.5,27.42\O,26.1,20.84,23.
 49\H,26.93,21.1,23.86\H,26.21,20.96,22.54\O,22.84,18.27,13.12\H,23.43,
 17.57,13.37\H,22.17,18.28,13.8\O,21.09,25.41,14.76\H,21.07,25.22,13.82
 \H,20.54,24.74,15.15\O,26.43,20.22,17.75\H,26.09,19.86,16.93\H,27.15,1
 9.65,17.99\O,17.86,24.89,24.52\H,17.6,25.65,25.04\H,18.6,24.52,25.01\O
 ,13.1,23.22,21.13\H,12.35,22.93,20.6\H,13.61,22.42,21.28\O,18.09,15.47
 ,25.02\H,18.47,15.41,25.9\H,17.18,15.73,25.18\O,19.53,19.14,13.03\H,20
 .14,19.86,12.92\H,20.,18.37,12.72\O,25.29,20.41,14.38\H,24.9,19.74,14.
 94\H,26.05,19.97,13.99\O,12.95,19.63,19.05\H,12.3,19.39,18.39\H,12.51,
 20.28,19.6\O,17.28,25.55,16.05\H,16.58,25.29,16.64\H,17.13,26.48,15.9\
 O,16.02,18.09,13.48\H,15.41,17.87,14.19\H,16.53,18.82,13.83\O,18.04,14
 .94,14.73\H,18.15,14.5,15.57\H,17.37,15.61,14.89\O,24.56,14.02,22.27\H
 ,24.59,14.05,21.31\H,23.64,14.14,22.49\O,19.72,27.01,16.71\H,20.21,26.
 61,15.99\H,18.89,26.54,16.73\O,16.22,20.94,12.54\H,16.95,21.13,11.95\H
 ,16.61,20.98,13.42\O,15.61,16.56,25.33\H,15.51,16.06,24.52\H,14.92,17.
 22,25.3\O,25.85,25.35,22.4\H,25.5,24.46,22.45\H,26.11,25.55,23.3\O,25.
 95,25.81,18.53\H,25.16,25.27,18.55\H,26.14,25.91,17.6\O,14.2,25.4,22.1
 8\H,15.15,25.34,22.13\H,13.88,24.61,21.74\O,15.25,14.57,22.68\H,15.05,
 14.58,21.74\H,14.45,14.26,23.1\O,27.53,17.69,19.28\H,28.46,17.89,19.43
 \H,27.17,17.54,20.15\O,22.51,26.01,25.15\H,23.43,25.75,25.25\H,22.32,2
 5.86,24.22\O,24.4,15.77,24.53\H,24.88,15.13,23.99\H,25.08,16.39,24.8\O
 ,20.86,13.99,15.01\H,20.06,14.45,14.76\H,20.55,13.22,15.49\O,14.16,14.
 34,17.37\H,14.59,13.87,16.65\H,14.68,15.14,17.47\O,13.27,21.5,24.44\H,
 13.57,22.,23.68\H,14.04,21.44,25.\O,19.49,12.67,16.98\H,20.39,12.8,17.
 28\H,18.98,12.6,17.79\O,23.75,26.64,21.3\H,23.89,27.18,20.52\H,24.59,2
 6.69,21.77\O,14.39,26.67,19.11\H,14.33,26.99,18.2\H,15.05,25.98,19.07\
 O,22.74,19.5,28.35\H,22.41,19.5,27.45\H,23.35,20.24,28.38\O,15.25,20.6
 2,26.65\H,16.07,20.14,26.81\H,14.57,20.05,27.03\O,21.21,21.24,12.32\H,
 20.72,21.98,11.96\H,22.1,21.35,12.\O,17.1,17.98,27.56\H,16.56,17.63,26
 .84\H,18.,17.74,27.32\O,13.64,18.49,24.88\H,13.38,18.24,24.\H,13.43,19
 .43,24.94\O,26.9,17.14,16.65\H,27.75,17.11,16.2\H,27.12,17.41,17.54\O,
 23.82,27.57,17.7\H,24.53,27.42,17.07\H,23.17,26.89,17.49\O,27.25,24.09
 ,16.68\H,26.46,23.6,16.92\H,27.11,24.34,15.77\O,12.76,18.71,16.18\H,11
 .85,18.69,15.89\H,13.03,19.62,16.05\O,13.81,21.53,15.11\H,13.7,21.04,1
 4.29\H,12.93,21.61,15.47\O,14.5,16.62,15.19\H,14.51,15.73,14.84\H,13.5
 8,16.79,15.38\O,27.8,23.46,19.31\H,27.89,23.66,18.38\H,27.06,24.,19.6\
 O,17.09,21.86,28.31\H,17.48,22.74,28.37\H,17.64,21.4,27.68\O,23.02,13.
 43,25.04\H,22.17,13.46,24.61\H,23.43,14.26,24.82\O,25.09,24.99,14.26\H
 ,24.33,24.57,14.66\H,25.7,24.28,14.1\O,25.46,20.95,27.11\H,25.38,21.4,
 27.95\H,24.9,21.44,26.51\O,20.25,28.6,18.67\H,20.11,29.47,18.29\H,20.3
 1,28.01,17.91\O,20.75,10.95,20.1\H,20.09,10.37,19.72\H,20.27,11.72,20.
 39\O,23.35,23.07,26.99\H,23.19,23.11,27.94\H,24.01,23.74,26.83\O,16.55
 ,11.75,21.47\H,16.76,10.92,21.9\H,17.05,12.41,21.94\O,14.7,25.17,25.44
 \H,15.01,24.92,24.58\H,15.37,25.77,25.78\O,23.38,16.57,27.51\H,23.71,1
 6.16,26.71\H,23.29,17.5,27.29\O,21.82,28.3,23.41\H,22.02,27.37,23.46\H
 ,22.37,28.7,24.08\O,23.45,11.46,20.38\H,23.36,12.28,19.89\H,22.57,11.0
 8,20.37\O,25.68,14.87,15.48\H,25.98,15.55,16.08\H,26.4,14.23,15.46\O,1
 6.59,24.89,13.48\H,17.06,25.65,13.15\H,16.36,25.12,14.38\O,28.81,18.91
 ,22.76\H,27.93,18.56,22.63\H,29.09,19.2,21.89\O,15.38,28.24,21.39\H,15
 .69,27.41,21.03\H,14.47,28.31,21.09\O,12.23,15.79,16.44\H,12.74,16.21,
 17.13\H,12.51,14.88,16.45\O,12.87,14.71,19.9\H,13.1,14.5,19.\H,12.49,1
 5.59,19.86\O,20.24,25.78,26.87\H,19.88,26.67,26.81\H,21.07,25.83,26.39
 \O,17.45,16.3,11.82\H,17.26,16.66,10.96\H,16.98,16.87,12.43\O,13.48,24
 .19,15.67\H,12.93,23.58,16.16\H,13.7,23.73,14.87\O,16.97,28.85,18.29\H
 ,17.75,29.09,18.78\H,16.63,28.07,18.74\O,17.96,19.29,10.47\H,18.22,19.
 11,11.37\H,18.75,19.64,10.06\O,10.79,20.63,21.27\H,11.33,20.23,21.95\H
 ,9.99,20.09,21.25\O,26.58,17.1,25.23\H,27.42,16.66,25.34\H,26.54,17.72
 ,25.96\O,18.61,12.51,25.51\H,19.26,12.54,24.81\H,18.16,11.68,25.38\O,2
 1.26,22.63,29.24\H,20.77,23.04,29.95\H,20.6,22.47,28.56\O,11.51,21.89,
 16.34\H,11.57,21.46,17.19\H,10.62,22.23,16.3\O,24.67,16.01,13.14\H,24.
 89,15.35,12.49\H,25.1,15.71,13.94\O,22.,18.26,10.47\H,21.73,17.36,10.3
 1\H,22.42,18.24,11.32\O,18.09,22.92,11.5\H,18.75,23.61,11.58\H,17.25,2
 3.37,11.59\O,23.96,20.89,11.47\H,24.64,21.02,12.13\H,23.78,19.95,11.5\
 O,14.22,26.86,16.38\H,14.03,25.93,16.24\H,14.36,27.2,15.49\O,11.27,17.
 ,19.48\H,10.97,17.61,18.8\H,10.86,17.33,20.28\O,20.38,29.77,21.6\H,20.
 62,29.02,22.15\H,20.25,29.39,20.73\\Version=ES64L-G09RevE.01\HF=-9773.
 3872227\RMSD=1.552e-09\RMSF=1.033e-02\Dipole=6.7704638,-4.8156782,-7.4
 461104\Quadrupole=891.5691931,-414.9100927,-476.6591004,-1338.9068318,
 -1386.4108107,-1817.5460623\PG=C01 [X(Br1H256O128)]\\@


 TIME IS NATURE'S WAY OF MAKING SURE EVERYTHING
 DOESN'T HAPPEN AT ONCE.
                     - WOODY ALLEN
 Job cpu time:       7 days 19 hours 47 minutes 20.7 seconds.
 File lengths (MBytes):  RWF=   7285 Int=      0 D2E=      0 Chk=   2411 Scr=      1
 Normal termination of Gaussian 09 at Sat May  5 21:58:20 2018.
