 Entering Gaussian System, Link 0=/cm/shared/gaussian/g09.e01/intel64-sandybridge/g09/g09
 Initial command:
 /cm/shared/gaussian/g09.e01/intel64-sandybridge/g09/l1.exe "/local/scratch/m.peluso/128_wat/370/Gau-16633.inp" -scrdir="/local/scratch/m.peluso/128_wat/370/"
 Entering Link 1 = /cm/shared/gaussian/g09.e01/intel64-sandybridge/g09/l1.exe PID=     16634.
  
 Copyright (c) 1988,1990,1992,1993,1995,1998,2003,2009,2015,
            Gaussian, Inc.  All Rights Reserved.
  
 This is part of the Gaussian(R) 09 program.  It is based on
 the Gaussian(R) 03 system (copyright 2003, Gaussian, Inc.),
 the Gaussian(R) 98 system (copyright 1998, Gaussian, Inc.),
 the Gaussian(R) 94 system (copyright 1995, Gaussian, Inc.),
 the Gaussian 92(TM) system (copyright 1992, Gaussian, Inc.),
 the Gaussian 90(TM) system (copyright 1990, Gaussian, Inc.),
 the Gaussian 88(TM) system (copyright 1988, Gaussian, Inc.),
 the Gaussian 86(TM) system (copyright 1986, Carnegie Mellon
 University), and the Gaussian 82(TM) system (copyright 1983,
 Carnegie Mellon University). Gaussian is a federally registered
 trademark of Gaussian, Inc.
  
 This software contains proprietary and confidential information,
 including trade secrets, belonging to Gaussian, Inc.
  
 This software is provided under written license and may be
 used, copied, transmitted, or stored only in accord with that
 written license.
  
 The following legend is applicable only to US Government
 contracts under FAR:
  
                    RESTRICTED RIGHTS LEGEND
  
 Use, reproduction and disclosure by the US Government is
 subject to restrictions as set forth in subparagraphs (a)
 and (c) of the Commercial Computer Software - Restricted
 Rights clause in FAR 52.227-19.
  
 Gaussian, Inc.
 340 Quinnipiac St., Bldg. 40, Wallingford CT 06492
  
  
 ---------------------------------------------------------------
 Warning -- This program may not be used in any manner that
 competes with the business of Gaussian, Inc. or will provide
 assistance to any competitor of Gaussian, Inc.  The licensee
 of this program is prohibited from giving any competitor of
 Gaussian, Inc. access to this program.  By using this program,
 the user acknowledges that Gaussian, Inc. is engaged in the
 business of creating and licensing software in the field of
 computational chemistry and represents and warrants to the
 licensee that it is not a competitor of Gaussian, Inc. and that
 it will not use this program in any manner prohibited above.
 ---------------------------------------------------------------
  

 Cite this work as:
 Gaussian 09, Revision E.01,
 M. J. Frisch, G. W. Trucks, H. B. Schlegel, G. E. Scuseria, 
 M. A. Robb, J. R. Cheeseman, G. Scalmani, V. Barone, B. Mennucci, 
 G. A. Petersson, H. Nakatsuji, M. Caricato, X. Li, H. P. Hratchian, 
 A. F. Izmaylov, J. Bloino, G. Zheng, J. L. Sonnenberg, M. Hada, 
 M. Ehara, K. Toyota, R. Fukuda, J. Hasegawa, M. Ishida, T. Nakajima, 
 Y. Honda, O. Kitao, H. Nakai, T. Vreven, J. A. Montgomery, Jr., 
 J. E. Peralta, F. Ogliaro, M. Bearpark, J. J. Heyd, E. Brothers, 
 K. N. Kudin, V. N. Staroverov, T. Keith, R. Kobayashi, J. Normand, 
 K. Raghavachari, A. Rendell, J. C. Burant, S. S. Iyengar, J. Tomasi, 
 M. Cossi, N. Rega, J. M. Millam, M. Klene, J. E. Knox, J. B. Cross, 
 V. Bakken, C. Adamo, J. Jaramillo, R. Gomperts, R. E. Stratmann, 
 O. Yazyev, A. J. Austin, R. Cammi, C. Pomelli, J. W. Ochterski, 
 R. L. Martin, K. Morokuma, V. G. Zakrzewski, G. A. Voth, 
 P. Salvador, J. J. Dannenberg, S. Dapprich, A. D. Daniels, 
 O. Farkas, J. B. Foresman, J. V. Ortiz, J. Cioslowski, 
 and D. J. Fox, Gaussian, Inc., Wallingford CT, 2013.
 
 ******************************************
 Gaussian 09:  ES64L-G09RevE.01 30-Nov-2015
                10-May-2018 
 ******************************************
 %Mem=110GB
 %NProcShared=64
 Will use up to   64 processors via shared memory.
 %chk=snap103.chk
 ----------------------------------------------
 #p PBE1PBE/cc-pvDZ force Counterpoise=2 noSymm
 ----------------------------------------------
 1/10=7,30=1,38=1,62=2/1,3;
 2/12=2,15=1,17=6,18=5,40=1/2;
 1/10=7,30=1,38=1,53=2,62=2,63=101/22;
 3/5=16,11=2,16=1,25=1,30=1,71=1,74=-13/1,2,3;
 4//1;
 5/5=2,38=5/2;
 6/7=2,8=2,9=2,10=2,28=1/1;
 7/7=1,29=1,30=1,33=-1/1,2,3,16;
 1/10=7,30=1,53=2,62=2,63=101/22;
 3/5=7,6=11,11=2,16=1,25=1,30=1,71=1,74=-13,82=7/1,2,3;
 4//1;
 5/5=2,38=5/2;
 6/7=2,8=2,9=2,10=2,28=1/1;
 7/7=1,29=1,30=1,33=-1/1,2,3,16;
 1/10=7,30=1,53=2,62=2,63=101/22(-5);
 7/9=1,29=1,44=-1/16;
 1/10=7,30=1,62=2/3;
 99//99;
 Leave Link    1 at Thu May 10 06:44:37 2018, MaxMem= 14763950080 cpu:         6.9
 (Enter /cm/shared/gaussian/g09.e01/intel64-sandybridge/g09/l101.exe)
 ---------------------------------------
 forces on chloride comput - NWATER: 128
 ---------------------------------------
 Symbolic Z-matrix:
 Charge = -1 Multiplicity = 1 in supermolecule
 Charge = -1 Multiplicity = 1 in fragment      1.
 Charge =  0 Multiplicity = 1 in fragment      2.
 Br(Fragment=1)        20.       20.       20. 
 O(Fragment=2)         19.97     22.98     20.63 
 H(Fragment=2)         20.91     23.15     20.61 
 H(Fragment=2)         19.87     22.1      20.27 
 O(Fragment=2)         16.94     19.66     19.39 
 H(Fragment=2)         16.89     19.43     18.46 
 H(Fragment=2)         17.87     19.73     19.57 
 O(Fragment=2)         19.14     21.09     17.15 
 H(Fragment=2)         18.64     20.36     16.79 
 H(Fragment=2)         19.52     20.74     17.96 
 O(Fragment=2)         20.47     17.98     17.34 
 H(Fragment=2)         20.02     17.18     17.61 
 H(Fragment=2)         20.46     18.53     18.13 
 O(Fragment=2)         18.99     16.95     20.67 
 H(Fragment=2)         19.83     16.52     20.53 
 H(Fragment=2)         19.22     17.84     20.93 
 O(Fragment=2)         19.16     20.47     23.3 
 H(Fragment=2)         19.46     19.79     23.9 
 H(Fragment=2)         19.49     20.19     22.44 
 O(Fragment=2)         23.43     19.66     20.1 
 H(Fragment=2)         23.54     18.94     20.72 
 H(Fragment=2)         22.5      19.62     19.86 
 O(Fragment=2)         23.06     22.44     18.3 
 H(Fragment=2)         22.73     21.73     18.85 
 H(Fragment=2)         22.97     22.11     17.4 
 O(Fragment=2)         19.99     23.9      18.17 
 H(Fragment=2)         19.79     23.62     19.06 
 H(Fragment=2)         19.14     24.08     17.78 
 O(Fragment=2)         23.88     21.65     22.06 
 H(Fragment=2)         23.45     20.91     21.63 
 H(Fragment=2)         24.16     21.3      22.91 
 O(Fragment=2)         17.25     23.41     17.88 
 H(Fragment=2)         17.43     22.5      18.11 
 H(Fragment=2)         17.02     23.38     16.95 
 O(Fragment=2)         17.24     23.71     21.17 
 H(Fragment=2)         18.01     23.49     20.65 
 H(Fragment=2)         17.55     23.69     22.08 
 O(Fragment=2)         22.92     17.3      21.34 
 H(Fragment=2)         22.63     17.37     22.25 
 H(Fragment=2)         22.62     16.44     21.05 
 O(Fragment=2)         23.3      17.33     17.1 
 H(Fragment=2)         23.78     18.11     16.82 
 H(Fragment=2)         22.39     17.6      17.13 
 O(Fragment=2)         20.66     23.19     24. 
 H(Fragment=2)         21.32     23.07     23.31 
 H(Fragment=2)         19.9      22.69     23.7 
 O(Fragment=2)         17.26     15.51     19.04 
 H(Fragment=2)         17.66     16.06     19.71 
 H(Fragment=2)         17.99     15.05     18.63 
 O(Fragment=2)         16.77     21.47     24.4 
 H(Fragment=2)         17.32     21.09     23.72 
 H(Fragment=2)         17.38     21.86     25.02 
 O(Fragment=2)         17.26     19.25     16.2 
 H(Fragment=2)         16.89     19.99     15.72 
 H(Fragment=2)         16.78     18.49     15.88 
 O(Fragment=2)         24.89     19.86     17.28 
 H(Fragment=2)         25.57     20.32     17.77 
 H(Fragment=2)         24.08     20.33     17.48 
 O(Fragment=2)         22.55     20.61     15.94 
 H(Fragment=2)         22.83     19.82     15.5 
 H(Fragment=2)         22.37     21.23     15.24 
 O(Fragment=2)         14.58     18.1      19.77 
 H(Fragment=2)         14.4      18.63     18.99 
 H(Fragment=2)         15.42     18.44     20.1 
 O(Fragment=2)         19.81     18.06     14.56 
 H(Fragment=2)         20.03     18.89     14.15 
 H(Fragment=2)         19.66     18.28     15.48 
 O(Fragment=2)         20.23     22.2      14.59 
 H(Fragment=2)         20.76     22.98     14.71 
 H(Fragment=2)         20.02     21.9      15.47 
 O(Fragment=2)         15.01     22.06     20.1 
 H(Fragment=2)         14.36     22.57     19.61 
 H(Fragment=2)         15.8      22.59     20.06 
 O(Fragment=2)         19.39     18.46     24.87 
 H(Fragment=2)         19.04     17.59     24.7 
 H(Fragment=2)         19.07     18.68     25.75 
 O(Fragment=2)         18.65     16.02     23.87 
 H(Fragment=2)         18.07     16.33     23.17 
 H(Fragment=2)         18.79     15.1      23.68 
 O(Fragment=2)         19.91     15.25     17.78 
 H(Fragment=2)         19.6      14.48     17.3 
 H(Fragment=2)         20.84     15.11     17.9 
 O(Fragment=2)         21.38     14.96     20.58 
 H(Fragment=2)         20.7      14.33     20.83 
 H(Fragment=2)         22.07     14.43     20.19 
 O(Fragment=2)         22.06     17.01     23.81 
 H(Fragment=2)         21.18     16.92     24.17 
 H(Fragment=2)         22.65     16.76     24.52 
 O(Fragment=2)         24.77     23.45     20.23 
 H(Fragment=2)         24.61     22.63     20.69 
 H(Fragment=2)         24.32     23.36     19.39 
 O(Fragment=2)         25.26     16.35     19.9 
 H(Fragment=2)         24.54     16.98     19.98 
 H(Fragment=2)         25.04     15.83     19.13 
 O(Fragment=2)         21.86     25.       21.79 
 H(Fragment=2)         21.17     25.49     21.35 
 H(Fragment=2)         22.67     25.44     21.54 
 O(Fragment=2)         20.78     20.51     26.41 
 H(Fragment=2)         20.27     20.54     25.6 
 H(Fragment=2)         21.54     21.07     26.24 
 O(Fragment=2)         18.95     25.2      23.2 
 H(Fragment=2)         19.2      25.12     22.28 
 H(Fragment=2)         19.52     24.57     23.66 
 O(Fragment=2)         26.57     19.28     20.51 
 H(Fragment=2)         27.06     19.33     19.69 
 H(Fragment=2)         25.66     19.43     20.26 
 O(Fragment=2)         14.08     20.44     18.22 
 H(Fragment=2)         14.56     21.04     17.66 
 H(Fragment=2)         14.41     20.62     19.1 
 O(Fragment=2)         22.82     25.4      17.15 
 H(Fragment=2)         22.12     24.8      17.42 
 H(Fragment=2)         23.32     24.9      16.51 
 O(Fragment=2)         15.7      16.46     22.84 
 H(Fragment=2)         15.68     17.39     23.07 
 H(Fragment=2)         15.51     16.44     21.91 
 O(Fragment=2)         20.06     26.06     20.33 
 H(Fragment=2)         19.6      26.91     20.33 
 H(Fragment=2)         20.42     25.99     19.44 
 O(Fragment=2)         24.28     23.93     23.8 
 H(Fragment=2)         24.11     24.85     23.6 
 H(Fragment=2)         24.02     23.46     23.01 
 O(Fragment=2)         14.66     23.88     22.61 
 H(Fragment=2)         15.36     23.36     22.2 
 H(Fragment=2)         14.58     24.65     22.04 
 O(Fragment=2)         22.16     16.25     14.62 
 H(Fragment=2)         21.35     16.5      15.07 
 H(Fragment=2)         22.84     16.78     15.02 
 O(Fragment=2)         16.6      25.97     18.4 
 H(Fragment=2)         17.43     26.41     18.22 
 H(Fragment=2)         16.79     25.04     18.29 
 O(Fragment=2)         22.53     14.63     17.33 
 H(Fragment=2)         22.94     13.86     16.94 
 H(Fragment=2)         23.04     15.37     16.99 
 O(Fragment=2)         17.54     23.05     15.05 
 H(Fragment=2)         16.97     22.38     14.68 
 H(Fragment=2)         18.35     22.98     14.55 
 O(Fragment=2)         14.71     19.23     23.5 
 H(Fragment=2)         14.13     18.76     24.1 
 H(Fragment=2)         15.08     19.93     24.04 
 O(Fragment=2)         22.54     22.28     25.95 
 H(Fragment=2)         23.16     22.99     26.14 
 H(Fragment=2)         21.83     22.71     25.47 
 O(Fragment=2)         18.45     16.04     14.58 
 H(Fragment=2)         19.15     16.69     14.55 
 H(Fragment=2)         17.73     16.48     15.02 
 O(Fragment=2)         24.19     25.99     19.26 
 H(Fragment=2)         23.54     25.83     18.58 
 H(Fragment=2)         24.21     25.17     19.77 
 O(Fragment=2)         15.45     15.05     17.04 
 H(Fragment=2)         15.95     15.1      17.86 
 H(Fragment=2)         14.69     14.51     17.26 
 O(Fragment=2)         26.01     16.98     22.33 
 H(Fragment=2)         26.65     17.6      21.98 
 H(Fragment=2)         25.6      16.6      21.55 
 O(Fragment=2)         18.65     22.84     25.96 
 H(Fragment=2)         18.14     23.6      26.23 
 H(Fragment=2)         19.54     23.03     26.27 
 O(Fragment=2)         24.91     20.6      24.58 
 H(Fragment=2)         24.57     19.99     25.24 
 H(Fragment=2)         24.92     21.45     25.02 
 O(Fragment=2)         23.49     19.35     26.47 
 H(Fragment=2)         22.58     19.29     26.19 
 H(Fragment=2)         23.46     19.87     27.27 
 O(Fragment=2)         23.7      18.68     14.48 
 H(Fragment=2)         24.03     18.03     13.86 
 H(Fragment=2)         24.44     19.27     14.63 
 O(Fragment=2)         14.4      15.09     20.33 
 H(Fragment=2)         15.32     15.       20.07 
 H(Fragment=2)         13.97     14.3      20.01 
 O(Fragment=2)         17.07     20.54     13.62 
 H(Fragment=2)         17.93     20.16     13.45 
 H(Fragment=2)         16.51     20.16     12.95 
 O(Fragment=2)         15.71     17.27     15.33 
 H(Fragment=2)         15.54     16.54     15.93 
 H(Fragment=2)         15.07     17.15     14.63 
 O(Fragment=2)         26.7      21.55     18.81 
 H(Fragment=2)         26.72     21.79     19.73 
 H(Fragment=2)         27.55     21.15     18.64 
 O(Fragment=2)         27.13     20.4      22.88 
 H(Fragment=2)         26.65     19.98     22.16 
 H(Fragment=2)         26.47     20.61     23.53 
 O(Fragment=2)         12.59     18.93     21.9 
 H(Fragment=2)         13.21     18.7      21.21 
 H(Fragment=2)         13.13     19.18     22.65 
 O(Fragment=2)         26.08     16.5      16.39 
 H(Fragment=2)         25.71     17.21     16.92 
 H(Fragment=2)         25.64     16.58     15.54 
 O(Fragment=2)         20.92     20.24     12.28 
 H(Fragment=2)         20.86     20.92     12.96 
 H(Fragment=2)         20.68     20.7      11.48 
 O(Fragment=2)         19.1      25.85     15.8 
 H(Fragment=2)         18.76     26.52     16.39 
 H(Fragment=2)         18.33     25.34     15.54 
 O(Fragment=2)         22.12     25.54     25.76 
 H(Fragment=2)         21.57     26.31     25.83 
 H(Fragment=2)         21.82     25.1      24.96 
 O(Fragment=2)         18.91     13.6      15.45 
 H(Fragment=2)         18.52     13.09     14.74 
 H(Fragment=2)         18.51     14.47     15.38 
 O(Fragment=2)         24.47     14.43     23.17 
 H(Fragment=2)         24.55     15.34     23.47 
 H(Fragment=2)         23.71     14.1      23.66 
 O(Fragment=2)         17.72     19.12     26.97 
 H(Fragment=2)         17.92     20.02     27.22 
 H(Fragment=2)         16.81     19.15     26.67 
 O(Fragment=2)         18.33     15.33     26.47 
 H(Fragment=2)         18.47     15.29     25.52 
 H(Fragment=2)         17.41     15.59     26.57 
 O(Fragment=2)         15.83     16.28     25.89 
 H(Fragment=2)         15.11     15.66     26. 
 H(Fragment=2)         15.63     16.73     25.06 
 O(Fragment=2)         20.63     18.53     28.14 
 H(Fragment=2)         20.74     17.68     27.7 
 H(Fragment=2)         20.48     19.15     27.42 
 O(Fragment=2)         24.64     23.8      15.44 
 H(Fragment=2)         25.34     23.82     16.09 
 H(Fragment=2)         25.02     24.23     14.67 
 O(Fragment=2)         12.22     21.83     22.56 
 H(Fragment=2)         12.21     20.88     22.49 
 H(Fragment=2)         13.11     22.08     22.32 
 O(Fragment=2)         13.58     24.27     19.04 
 H(Fragment=2)         13.92     24.13     18.16 
 H(Fragment=2)         12.69     23.93     19.01 
 O(Fragment=2)         18.48     13.08     23.1 
 H(Fragment=2)         19.13     12.87     22.44 
 H(Fragment=2)         17.64     13.       22.65 
 O(Fragment=2)         14.3      23.62     16.52 
 H(Fragment=2)         14.35     24.55     16.28 
 H(Fragment=2)         14.34     23.16     15.69 
 O(Fragment=2)         16.07     26.19     24.08 
 H(Fragment=2)         16.9      25.94     23.67 
 H(Fragment=2)         15.42     26.08     23.39 
 O(Fragment=2)         26.21     17.4      24.92 
 H(Fragment=2)         26.05     17.46     23.98 
 H(Fragment=2)         26.56     18.25     25.17 
 O(Fragment=2)         20.45     28.       22.83 
 H(Fragment=2)         21.05     27.91     22.09 
 H(Fragment=2)         20.11     27.12     22.97 
 O(Fragment=2)         27.04     23.35     23.33 
 H(Fragment=2)         27.08     22.41     23.46 
 H(Fragment=2)         26.12     23.57     23.45 
 O(Fragment=2)         14.11     23.15     25.26 
 H(Fragment=2)         14.25     23.51     24.38 
 H(Fragment=2)         14.85     22.56     25.4 
 O(Fragment=2)         27.7      24.09     20.77 
 H(Fragment=2)         26.79     24.       20.5 
 H(Fragment=2)         27.75     23.62     21.6 
 O(Fragment=2)         25.61     20.79     14.01 
 H(Fragment=2)         25.99     21.1      14.83 
 H(Fragment=2)         24.94     21.43     13.79 
 O(Fragment=2)         27.01     23.26     16.75 
 H(Fragment=2)         27.39     22.63     16.14 
 H(Fragment=2)         27.1      22.84     17.61 
 O(Fragment=2)         27.69     18.83     17.96 
 H(Fragment=2)         27.59     18.93     17.01 
 H(Fragment=2)         28.24     18.05     18.06 
 O(Fragment=2)         22.27     24.07     13.28 
 H(Fragment=2)         23.12     23.95     13.7 
 H(Fragment=2)         22.44     23.89     12.35 
 O(Fragment=2)         15.08     19.32     26.36 
 H(Fragment=2)         14.96     18.4      26.6 
 H(Fragment=2)         14.34     19.77     26.77 
 O(Fragment=2)         13.87     14.51     23.32 
 H(Fragment=2)         14.65     15.01     23.53 
 H(Fragment=2)         13.37     15.07     22.73 
 O(Fragment=2)         23.42     12.61     20.07 
 H(Fragment=2)         23.2      12.48     19.14 
 H(Fragment=2)         24.37     12.65     20.09 
 O(Fragment=2)         24.28     26.48     22.52 
 H(Fragment=2)         24.22     27.32     22.05 
 H(Fragment=2)         24.61     26.72     23.38 
 O(Fragment=2)         15.27     26.59     21.54 
 H(Fragment=2)         15.04     26.47     20.62 
 H(Fragment=2)         15.99     27.22     21.53 
 O(Fragment=2)         22.62     14.97     25.89 
 H(Fragment=2)         23.06     15.54     26.53 
 H(Fragment=2)         21.81     14.71     26.32 
 O(Fragment=2)         12.23     16.33     21.68 
 H(Fragment=2)         12.39     17.14     22.16 
 H(Fragment=2)         12.67     16.46     20.84 
 O(Fragment=2)         20.77     26.8      14.06 
 H(Fragment=2)         20.35     26.22     14.69 
 H(Fragment=2)         21.7      26.62     14.15 
 O(Fragment=2)         11.32     19.5      17.65 
 H(Fragment=2)         12.03     20.03     18.02 
 H(Fragment=2)         10.82     19.21     18.41 
 O(Fragment=2)         19.36     11.83     20.73 
 H(Fragment=2)         19.33     11.77     19.78 
 H(Fragment=2)         20.28     11.7      20.95 
 O(Fragment=2)         16.49     12.33     19.79 
 H(Fragment=2)         17.31     11.98     20.13 
 H(Fragment=2)         16.09     12.78     20.54 
 O(Fragment=2)         21.97     13.39     14.44 
 H(Fragment=2)         22.3      14.22     14.08 
 H(Fragment=2)         21.13     13.63     14.84 
 O(Fragment=2)         16.29     13.81     14.46 
 H(Fragment=2)         16.49     12.88     14.39 
 H(Fragment=2)         16.23     13.98     15.4 
 O(Fragment=2)         14.18     27.       18.94 
 H(Fragment=2)         15.08     26.81     18.7 
 H(Fragment=2)         13.74     26.15     18.92 
 O(Fragment=2)         17.46     25.26     26.21 
 H(Fragment=2)         16.98     25.19     27.04 
 H(Fragment=2)         16.95     25.87     25.68 
 O(Fragment=2)         21.96     15.29     12.09 
 H(Fragment=2)         22.18     15.87     12.82 
 H(Fragment=2)         22.34     15.7      11.32 
 O(Fragment=2)         18.12     28.29     21.4 
 H(Fragment=2)         18.96     28.3      21.86 
 H(Fragment=2)         17.47     28.43     22.09 
 O(Fragment=2)         18.96     11.82     17.65 
 H(Fragment=2)         18.75     12.13     16.78 
 H(Fragment=2)         18.65     10.91     17.66 
 O(Fragment=2)         22.53     21.38     28.74 
 H(Fragment=2)         21.83     20.85     28.34 
 H(Fragment=2)         22.21     21.57     29.62 
 O(Fragment=2)         12.19     16.7      17.38 
 H(Fragment=2)         12.13     16.69     18.33 
 H(Fragment=2)         12.24     17.63     17.15 
 O(Fragment=2)         19.17     17.82     11.11 
 H(Fragment=2)         19.75     17.14     11.44 
 H(Fragment=2)         19.49     18.63     11.51 
 O(Fragment=2)         23.38     27.46     15.36 
 H(Fragment=2)         23.04     27.11     16.18 
 H(Fragment=2)         24.21     27.88     15.61 
 O(Fragment=2)         13.15     17.37     24.54 
 H(Fragment=2)         12.85     17.41     25.45 
 H(Fragment=2)         13.08     16.44     24.31 
 O(Fragment=2)         17.43     21.78     28.22 
 H(Fragment=2)         16.89     22.53     27.96 
 H(Fragment=2)         18.32     22.13     28.23 
 O(Fragment=2)         14.82     26.23     15.74 
 H(Fragment=2)         14.23     26.93     16. 
 H(Fragment=2)         15.67     26.5      16.09 
 O(Fragment=2)         19.41     14.5      12.23 
 H(Fragment=2)         19.       15.16     12.79 
 H(Fragment=2)         20.33     14.77     12.19 
 O(Fragment=2)         27.03     19.68     26.56 
 H(Fragment=2)         27.88     19.69     26.12 
 H(Fragment=2)         26.43     20.08     25.93 
 O(Fragment=2)         18.98     27.54     25.68 
 H(Fragment=2)         19.17     27.54     26.62 
 H(Fragment=2)         18.63     26.67     25.51 
 O(Fragment=2)         20.55     23.83     27.94 
 H(Fragment=2)         21.42     23.46     28.04 
 H(Fragment=2)         20.35     24.22     28.79 
 O(Fragment=2)         23.33     20.45     11.12 
 H(Fragment=2)         23.18     20.29     10.18 
 H(Fragment=2)         22.46     20.36     11.52 
 O(Fragment=2)         18.       28.04     16.85 
 H(Fragment=2)         17.29     28.64     17.09 
 H(Fragment=2)         18.71     28.61     16.56 
 O(Fragment=2)         25.39     16.57     13.83 
 H(Fragment=2)         25.81     16.51     12.97 
 H(Fragment=2)         24.96     15.72     13.94 
 O(Fragment=2)         25.27     28.35     19.23 
 H(Fragment=2)         26.11     28.2      18.82 
 H(Fragment=2)         24.84     27.49     19.23 
 O(Fragment=2)         20.58     13.91     27.21 
 H(Fragment=2)         20.34     13.16     27.74 
 H(Fragment=2)         19.75     14.35     27.03 
 O(Fragment=2)         27.68     18.75     15.39 
 H(Fragment=2)         28.56     18.36     15.37 
 H(Fragment=2)         27.28     18.45     14.57 
 O(Fragment=2)         23.46     16.79     27.74 
 H(Fragment=2)         23.79     17.67     27.93 
 H(Fragment=2)         23.22     16.43     28.6 
 O(Fragment=2)         15.75     23.08     12.19 
 H(Fragment=2)         16.62     22.73     12.04 
 H(Fragment=2)         15.75     23.93     11.75 
 O(Fragment=2)         14.7      17.06     12.74 
 H(Fragment=2)         15.63     17.19     12.56 
 H(Fragment=2)         14.53     16.16     12.47 
 O(Fragment=2)         10.53     18.29     20.02 
 H(Fragment=2)         11.08     18.42     20.79 
 H(Fragment=2)         9.86      18.97     20.09 
 O(Fragment=2)         13.67     22.67     13.98 
 H(Fragment=2)         14.39     22.74     13.35 
 H(Fragment=2)         13.37     21.77     13.9 
 O(Fragment=2)         27.31     14.       22.41 
 H(Fragment=2)         27.02     14.71     23. 
 H(Fragment=2)         26.69     14.03     21.69 
 O(Fragment=2)         20.21     28.91     15.97 
 H(Fragment=2)         20.1      28.36     15.2 
 H(Fragment=2)         20.81     28.41     16.53 
 
 NAtoms=    385 NQM=      385 NQMF=       0 NMMI=      0 NMMIF=      0
                NMic=       0 NMicF=      0.
                    Isotopes and Nuclear Properties:
 (Nuclear quadrupole moments (NQMom) in fm**2, nuclear magnetic moments (NMagM)
  in nuclear magnetons)

  Atom         1           2           3           4           5           6           7           8           9          10
 IAtWgt=          79          16           1           1          16           1           1          16           1           1
 AtmWgt=  78.9183361  15.9949146   1.0078250   1.0078250  15.9949146   1.0078250   1.0078250  15.9949146   1.0078250   1.0078250
 NucSpn=           3           0           1           1           0           1           1           0           1           1
 AtZEff=   0.0000000   0.0000000   0.0000000   0.0000000   0.0000000   0.0000000   0.0000000   0.0000000   0.0000000   0.0000000
 NQMom=   31.3000000   0.0000000   0.0000000   0.0000000   0.0000000   0.0000000   0.0000000   0.0000000   0.0000000   0.0000000
 NMagM=    2.1063990   0.0000000   2.7928460   2.7928460   0.0000000   2.7928460   2.7928460   0.0000000   2.7928460   2.7928460
 AtZNuc=  35.0000000   8.0000000   1.0000000   1.0000000   8.0000000   1.0000000   1.0000000   8.0000000   1.0000000   1.0000000

  Atom        11          12          13          14          15          16          17          18          19          20
 IAtWgt=          16           1           1          16           1           1          16           1           1          16
 AtmWgt=  15.9949146   1.0078250   1.0078250  15.9949146   1.0078250   1.0078250  15.9949146   1.0078250   1.0078250  15.9949146
 NucSpn=           0           1           1           0           1           1           0           1           1           0
 AtZEff=   0.0000000   0.0000000   0.0000000   0.0000000   0.0000000   0.0000000   0.0000000   0.0000000   0.0000000   0.0000000
 NQMom=    0.0000000   0.0000000   0.0000000   0.0000000   0.0000000   0.0000000   0.0000000   0.0000000   0.0000000   0.0000000
 NMagM=    0.0000000   2.7928460   2.7928460   0.0000000   2.7928460   2.7928460   0.0000000   2.7928460   2.7928460   0.0000000
 AtZNuc=   8.0000000   1.0000000   1.0000000   8.0000000   1.0000000   1.0000000   8.0000000   1.0000000   1.0000000   8.0000000

  Atom        21          22          23          24          25          26          27          28          29          30
 IAtWgt=           1           1          16           1           1          16           1           1          16           1
 AtmWgt=   1.0078250   1.0078250  15.9949146   1.0078250   1.0078250  15.9949146   1.0078250   1.0078250  15.9949146   1.0078250
 NucSpn=           1           1           0           1           1           0           1           1           0           1
 AtZEff=   0.0000000   0.0000000   0.0000000   0.0000000   0.0000000   0.0000000   0.0000000   0.0000000   0.0000000   0.0000000
 NQMom=    0.0000000   0.0000000   0.0000000   0.0000000   0.0000000   0.0000000   0.0000000   0.0000000   0.0000000   0.0000000
 NMagM=    2.7928460   2.7928460   0.0000000   2.7928460   2.7928460   0.0000000   2.7928460   2.7928460   0.0000000   2.7928460
 AtZNuc=   1.0000000   1.0000000   8.0000000   1.0000000   1.0000000   8.0000000   1.0000000   1.0000000   8.0000000   1.0000000

  Atom        31          32          33          34          35          36          37          38          39          40
 IAtWgt=           1          16           1           1          16           1           1          16           1           1
 AtmWgt=   1.0078250  15.9949146   1.0078250   1.0078250  15.9949146   1.0078250   1.0078250  15.9949146   1.0078250   1.0078250
 NucSpn=           1           0           1           1           0           1           1           0           1           1
 AtZEff=   0.0000000   0.0000000   0.0000000   0.0000000   0.0000000   0.0000000   0.0000000   0.0000000   0.0000000   0.0000000
 NQMom=    0.0000000   0.0000000   0.0000000   0.0000000   0.0000000   0.0000000   0.0000000   0.0000000   0.0000000   0.0000000
 NMagM=    2.7928460   0.0000000   2.7928460   2.7928460   0.0000000   2.7928460   2.7928460   0.0000000   2.7928460   2.7928460
 AtZNuc=   1.0000000   8.0000000   1.0000000   1.0000000   8.0000000   1.0000000   1.0000000   8.0000000   1.0000000   1.0000000

  Atom        41          42          43          44          45          46          47          48          49          50
 IAtWgt=          16           1           1          16           1           1          16           1           1          16
 AtmWgt=  15.9949146   1.0078250   1.0078250  15.9949146   1.0078250   1.0078250  15.9949146   1.0078250   1.0078250  15.9949146
 NucSpn=           0           1           1           0           1           1           0           1           1           0
 AtZEff=   0.0000000   0.0000000   0.0000000   0.0000000   0.0000000   0.0000000   0.0000000   0.0000000   0.0000000   0.0000000
 NQMom=    0.0000000   0.0000000   0.0000000   0.0000000   0.0000000   0.0000000   0.0000000   0.0000000   0.0000000   0.0000000
 NMagM=    0.0000000   2.7928460   2.7928460   0.0000000   2.7928460   2.7928460   0.0000000   2.7928460   2.7928460   0.0000000
 AtZNuc=   8.0000000   1.0000000   1.0000000   8.0000000   1.0000000   1.0000000   8.0000000   1.0000000   1.0000000   8.0000000

  Atom        51          52          53          54          55          56          57          58          59          60
 IAtWgt=           1           1          16           1           1          16           1           1          16           1
 AtmWgt=   1.0078250   1.0078250  15.9949146   1.0078250   1.0078250  15.9949146   1.0078250   1.0078250  15.9949146   1.0078250
 NucSpn=           1           1           0           1           1           0           1           1           0           1
 AtZEff=   0.0000000   0.0000000   0.0000000   0.0000000   0.0000000   0.0000000   0.0000000   0.0000000   0.0000000   0.0000000
 NQMom=    0.0000000   0.0000000   0.0000000   0.0000000   0.0000000   0.0000000   0.0000000   0.0000000   0.0000000   0.0000000
 NMagM=    2.7928460   2.7928460   0.0000000   2.7928460   2.7928460   0.0000000   2.7928460   2.7928460   0.0000000   2.7928460
 AtZNuc=   1.0000000   1.0000000   8.0000000   1.0000000   1.0000000   8.0000000   1.0000000   1.0000000   8.0000000   1.0000000

  Atom        61          62          63          64          65          66          67          68          69          70
 IAtWgt=           1          16           1           1          16           1           1          16           1           1
 AtmWgt=   1.0078250  15.9949146   1.0078250   1.0078250  15.9949146   1.0078250   1.0078250  15.9949146   1.0078250   1.0078250
 NucSpn=           1           0           1           1           0           1           1           0           1           1
 AtZEff=   0.0000000   0.0000000   0.0000000   0.0000000   0.0000000   0.0000000   0.0000000   0.0000000   0.0000000   0.0000000
 NQMom=    0.0000000   0.0000000   0.0000000   0.0000000   0.0000000   0.0000000   0.0000000   0.0000000   0.0000000   0.0000000
 NMagM=    2.7928460   0.0000000   2.7928460   2.7928460   0.0000000   2.7928460   2.7928460   0.0000000   2.7928460   2.7928460
 AtZNuc=   1.0000000   8.0000000   1.0000000   1.0000000   8.0000000   1.0000000   1.0000000   8.0000000   1.0000000   1.0000000

  Atom        71          72          73          74          75          76          77          78          79          80
 IAtWgt=          16           1           1          16           1           1          16           1           1          16
 AtmWgt=  15.9949146   1.0078250   1.0078250  15.9949146   1.0078250   1.0078250  15.9949146   1.0078250   1.0078250  15.9949146
 NucSpn=           0           1           1           0           1           1           0           1           1           0
 AtZEff=   0.0000000   0.0000000   0.0000000   0.0000000   0.0000000   0.0000000   0.0000000   0.0000000   0.0000000   0.0000000
 NQMom=    0.0000000   0.0000000   0.0000000   0.0000000   0.0000000   0.0000000   0.0000000   0.0000000   0.0000000   0.0000000
 NMagM=    0.0000000   2.7928460   2.7928460   0.0000000   2.7928460   2.7928460   0.0000000   2.7928460   2.7928460   0.0000000
 AtZNuc=   8.0000000   1.0000000   1.0000000   8.0000000   1.0000000   1.0000000   8.0000000   1.0000000   1.0000000   8.0000000

  Atom        81          82          83          84          85          86          87          88          89          90
 IAtWgt=           1           1          16           1           1          16           1           1          16           1
 AtmWgt=   1.0078250   1.0078250  15.9949146   1.0078250   1.0078250  15.9949146   1.0078250   1.0078250  15.9949146   1.0078250
 NucSpn=           1           1           0           1           1           0           1           1           0           1
 AtZEff=   0.0000000   0.0000000   0.0000000   0.0000000   0.0000000   0.0000000   0.0000000   0.0000000   0.0000000   0.0000000
 NQMom=    0.0000000   0.0000000   0.0000000   0.0000000   0.0000000   0.0000000   0.0000000   0.0000000   0.0000000   0.0000000
 NMagM=    2.7928460   2.7928460   0.0000000   2.7928460   2.7928460   0.0000000   2.7928460   2.7928460   0.0000000   2.7928460
 AtZNuc=   1.0000000   1.0000000   8.0000000   1.0000000   1.0000000   8.0000000   1.0000000   1.0000000   8.0000000   1.0000000

  Atom        91          92          93          94          95          96          97          98          99         100
 IAtWgt=           1          16           1           1          16           1           1          16           1           1
 AtmWgt=   1.0078250  15.9949146   1.0078250   1.0078250  15.9949146   1.0078250   1.0078250  15.9949146   1.0078250   1.0078250
 NucSpn=           1           0           1           1           0           1           1           0           1           1
 AtZEff=   0.0000000   0.0000000   0.0000000   0.0000000   0.0000000   0.0000000   0.0000000   0.0000000   0.0000000   0.0000000
 NQMom=    0.0000000   0.0000000   0.0000000   0.0000000   0.0000000   0.0000000   0.0000000   0.0000000   0.0000000   0.0000000
 NMagM=    2.7928460   0.0000000   2.7928460   2.7928460   0.0000000   2.7928460   2.7928460   0.0000000   2.7928460   2.7928460
 AtZNuc=   1.0000000   8.0000000   1.0000000   1.0000000   8.0000000   1.0000000   1.0000000   8.0000000   1.0000000   1.0000000

  Atom       101         102         103         104         105         106         107         108         109         110
 IAtWgt=          16           1           1          16           1           1          16           1           1          16
 AtmWgt=  15.9949146   1.0078250   1.0078250  15.9949146   1.0078250   1.0078250  15.9949146   1.0078250   1.0078250  15.9949146
 NucSpn=           0           1           1           0           1           1           0           1           1           0
 AtZEff=   0.0000000   0.0000000   0.0000000   0.0000000   0.0000000   0.0000000   0.0000000   0.0000000   0.0000000   0.0000000
 NQMom=    0.0000000   0.0000000   0.0000000   0.0000000   0.0000000   0.0000000   0.0000000   0.0000000   0.0000000   0.0000000
 NMagM=    0.0000000   2.7928460   2.7928460   0.0000000   2.7928460   2.7928460   0.0000000   2.7928460   2.7928460   0.0000000
 AtZNuc=   8.0000000   1.0000000   1.0000000   8.0000000   1.0000000   1.0000000   8.0000000   1.0000000   1.0000000   8.0000000

  Atom       111         112         113         114         115         116         117         118         119         120
 IAtWgt=           1           1          16           1           1          16           1           1          16           1
 AtmWgt=   1.0078250   1.0078250  15.9949146   1.0078250   1.0078250  15.9949146   1.0078250   1.0078250  15.9949146   1.0078250
 NucSpn=           1           1           0           1           1           0           1           1           0           1
 AtZEff=   0.0000000   0.0000000   0.0000000   0.0000000   0.0000000   0.0000000   0.0000000   0.0000000   0.0000000   0.0000000
 NQMom=    0.0000000   0.0000000   0.0000000   0.0000000   0.0000000   0.0000000   0.0000000   0.0000000   0.0000000   0.0000000
 NMagM=    2.7928460   2.7928460   0.0000000   2.7928460   2.7928460   0.0000000   2.7928460   2.7928460   0.0000000   2.7928460
 AtZNuc=   1.0000000   1.0000000   8.0000000   1.0000000   1.0000000   8.0000000   1.0000000   1.0000000   8.0000000   1.0000000

  Atom       121         122         123         124         125         126         127         128         129         130
 IAtWgt=           1          16           1           1          16           1           1          16           1           1
 AtmWgt=   1.0078250  15.9949146   1.0078250   1.0078250  15.9949146   1.0078250   1.0078250  15.9949146   1.0078250   1.0078250
 NucSpn=           1           0           1           1           0           1           1           0           1           1
 AtZEff=   0.0000000   0.0000000   0.0000000   0.0000000   0.0000000   0.0000000   0.0000000   0.0000000   0.0000000   0.0000000
 NQMom=    0.0000000   0.0000000   0.0000000   0.0000000   0.0000000   0.0000000   0.0000000   0.0000000   0.0000000   0.0000000
 NMagM=    2.7928460   0.0000000   2.7928460   2.7928460   0.0000000   2.7928460   2.7928460   0.0000000   2.7928460   2.7928460
 AtZNuc=   1.0000000   8.0000000   1.0000000   1.0000000   8.0000000   1.0000000   1.0000000   8.0000000   1.0000000   1.0000000

  Atom       131         132         133         134         135         136         137         138         139         140
 IAtWgt=          16           1           1          16           1           1          16           1           1          16
 AtmWgt=  15.9949146   1.0078250   1.0078250  15.9949146   1.0078250   1.0078250  15.9949146   1.0078250   1.0078250  15.9949146
 NucSpn=           0           1           1           0           1           1           0           1           1           0
 AtZEff=   0.0000000   0.0000000   0.0000000   0.0000000   0.0000000   0.0000000   0.0000000   0.0000000   0.0000000   0.0000000
 NQMom=    0.0000000   0.0000000   0.0000000   0.0000000   0.0000000   0.0000000   0.0000000   0.0000000   0.0000000   0.0000000
 NMagM=    0.0000000   2.7928460   2.7928460   0.0000000   2.7928460   2.7928460   0.0000000   2.7928460   2.7928460   0.0000000
 AtZNuc=   8.0000000   1.0000000   1.0000000   8.0000000   1.0000000   1.0000000   8.0000000   1.0000000   1.0000000   8.0000000

  Atom       141         142         143         144         145         146         147         148         149         150
 IAtWgt=           1           1          16           1           1          16           1           1          16           1
 AtmWgt=   1.0078250   1.0078250  15.9949146   1.0078250   1.0078250  15.9949146   1.0078250   1.0078250  15.9949146   1.0078250
 NucSpn=           1           1           0           1           1           0           1           1           0           1
 AtZEff=   0.0000000   0.0000000   0.0000000   0.0000000   0.0000000   0.0000000   0.0000000   0.0000000   0.0000000   0.0000000
 NQMom=    0.0000000   0.0000000   0.0000000   0.0000000   0.0000000   0.0000000   0.0000000   0.0000000   0.0000000   0.0000000
 NMagM=    2.7928460   2.7928460   0.0000000   2.7928460   2.7928460   0.0000000   2.7928460   2.7928460   0.0000000   2.7928460
 AtZNuc=   1.0000000   1.0000000   8.0000000   1.0000000   1.0000000   8.0000000   1.0000000   1.0000000   8.0000000   1.0000000

  Atom       151         152         153         154         155         156         157         158         159         160
 IAtWgt=           1          16           1           1          16           1           1          16           1           1
 AtmWgt=   1.0078250  15.9949146   1.0078250   1.0078250  15.9949146   1.0078250   1.0078250  15.9949146   1.0078250   1.0078250
 NucSpn=           1           0           1           1           0           1           1           0           1           1
 AtZEff=   0.0000000   0.0000000   0.0000000   0.0000000   0.0000000   0.0000000   0.0000000   0.0000000   0.0000000   0.0000000
 NQMom=    0.0000000   0.0000000   0.0000000   0.0000000   0.0000000   0.0000000   0.0000000   0.0000000   0.0000000   0.0000000
 NMagM=    2.7928460   0.0000000   2.7928460   2.7928460   0.0000000   2.7928460   2.7928460   0.0000000   2.7928460   2.7928460
 AtZNuc=   1.0000000   8.0000000   1.0000000   1.0000000   8.0000000   1.0000000   1.0000000   8.0000000   1.0000000   1.0000000

  Atom       161         162         163         164         165         166         167         168         169         170
 IAtWgt=          16           1           1          16           1           1          16           1           1          16
 AtmWgt=  15.9949146   1.0078250   1.0078250  15.9949146   1.0078250   1.0078250  15.9949146   1.0078250   1.0078250  15.9949146
 NucSpn=           0           1           1           0           1           1           0           1           1           0
 AtZEff=   0.0000000   0.0000000   0.0000000   0.0000000   0.0000000   0.0000000   0.0000000   0.0000000   0.0000000   0.0000000
 NQMom=    0.0000000   0.0000000   0.0000000   0.0000000   0.0000000   0.0000000   0.0000000   0.0000000   0.0000000   0.0000000
 NMagM=    0.0000000   2.7928460   2.7928460   0.0000000   2.7928460   2.7928460   0.0000000   2.7928460   2.7928460   0.0000000
 AtZNuc=   8.0000000   1.0000000   1.0000000   8.0000000   1.0000000   1.0000000   8.0000000   1.0000000   1.0000000   8.0000000

  Atom       171         172         173         174         175         176         177         178         179         180
 IAtWgt=           1           1          16           1           1          16           1           1          16           1
 AtmWgt=   1.0078250   1.0078250  15.9949146   1.0078250   1.0078250  15.9949146   1.0078250   1.0078250  15.9949146   1.0078250
 NucSpn=           1           1           0           1           1           0           1           1           0           1
 AtZEff=   0.0000000   0.0000000   0.0000000   0.0000000   0.0000000   0.0000000   0.0000000   0.0000000   0.0000000   0.0000000
 NQMom=    0.0000000   0.0000000   0.0000000   0.0000000   0.0000000   0.0000000   0.0000000   0.0000000   0.0000000   0.0000000
 NMagM=    2.7928460   2.7928460   0.0000000   2.7928460   2.7928460   0.0000000   2.7928460   2.7928460   0.0000000   2.7928460
 AtZNuc=   1.0000000   1.0000000   8.0000000   1.0000000   1.0000000   8.0000000   1.0000000   1.0000000   8.0000000   1.0000000

  Atom       181         182         183         184         185         186         187         188         189         190
 IAtWgt=           1          16           1           1          16           1           1          16           1           1
 AtmWgt=   1.0078250  15.9949146   1.0078250   1.0078250  15.9949146   1.0078250   1.0078250  15.9949146   1.0078250   1.0078250
 NucSpn=           1           0           1           1           0           1           1           0           1           1
 AtZEff=   0.0000000   0.0000000   0.0000000   0.0000000   0.0000000   0.0000000   0.0000000   0.0000000   0.0000000   0.0000000
 NQMom=    0.0000000   0.0000000   0.0000000   0.0000000   0.0000000   0.0000000   0.0000000   0.0000000   0.0000000   0.0000000
 NMagM=    2.7928460   0.0000000   2.7928460   2.7928460   0.0000000   2.7928460   2.7928460   0.0000000   2.7928460   2.7928460
 AtZNuc=   1.0000000   8.0000000   1.0000000   1.0000000   8.0000000   1.0000000   1.0000000   8.0000000   1.0000000   1.0000000

  Atom       191         192         193         194         195         196         197         198         199         200
 IAtWgt=          16           1           1          16           1           1          16           1           1          16
 AtmWgt=  15.9949146   1.0078250   1.0078250  15.9949146   1.0078250   1.0078250  15.9949146   1.0078250   1.0078250  15.9949146
 NucSpn=           0           1           1           0           1           1           0           1           1           0
 AtZEff=   0.0000000   0.0000000   0.0000000   0.0000000   0.0000000   0.0000000   0.0000000   0.0000000   0.0000000   0.0000000
 NQMom=    0.0000000   0.0000000   0.0000000   0.0000000   0.0000000   0.0000000   0.0000000   0.0000000   0.0000000   0.0000000
 NMagM=    0.0000000   2.7928460   2.7928460   0.0000000   2.7928460   2.7928460   0.0000000   2.7928460   2.7928460   0.0000000
 AtZNuc=   8.0000000   1.0000000   1.0000000   8.0000000   1.0000000   1.0000000   8.0000000   1.0000000   1.0000000   8.0000000

  Atom       201         202         203         204         205         206         207         208         209         210
 IAtWgt=           1           1          16           1           1          16           1           1          16           1
 AtmWgt=   1.0078250   1.0078250  15.9949146   1.0078250   1.0078250  15.9949146   1.0078250   1.0078250  15.9949146   1.0078250
 NucSpn=           1           1           0           1           1           0           1           1           0           1
 AtZEff=   0.0000000   0.0000000   0.0000000   0.0000000   0.0000000   0.0000000   0.0000000   0.0000000   0.0000000   0.0000000
 NQMom=    0.0000000   0.0000000   0.0000000   0.0000000   0.0000000   0.0000000   0.0000000   0.0000000   0.0000000   0.0000000
 NMagM=    2.7928460   2.7928460   0.0000000   2.7928460   2.7928460   0.0000000   2.7928460   2.7928460   0.0000000   2.7928460
 AtZNuc=   1.0000000   1.0000000   8.0000000   1.0000000   1.0000000   8.0000000   1.0000000   1.0000000   8.0000000   1.0000000

  Atom       211         212         213         214         215         216         217         218         219         220
 IAtWgt=           1          16           1           1          16           1           1          16           1           1
 AtmWgt=   1.0078250  15.9949146   1.0078250   1.0078250  15.9949146   1.0078250   1.0078250  15.9949146   1.0078250   1.0078250
 NucSpn=           1           0           1           1           0           1           1           0           1           1
 AtZEff=   0.0000000   0.0000000   0.0000000   0.0000000   0.0000000   0.0000000   0.0000000   0.0000000   0.0000000   0.0000000
 NQMom=    0.0000000   0.0000000   0.0000000   0.0000000   0.0000000   0.0000000   0.0000000   0.0000000   0.0000000   0.0000000
 NMagM=    2.7928460   0.0000000   2.7928460   2.7928460   0.0000000   2.7928460   2.7928460   0.0000000   2.7928460   2.7928460
 AtZNuc=   1.0000000   8.0000000   1.0000000   1.0000000   8.0000000   1.0000000   1.0000000   8.0000000   1.0000000   1.0000000

  Atom       221         222         223         224         225         226         227         228         229         230
 IAtWgt=          16           1           1          16           1           1          16           1           1          16
 AtmWgt=  15.9949146   1.0078250   1.0078250  15.9949146   1.0078250   1.0078250  15.9949146   1.0078250   1.0078250  15.9949146
 NucSpn=           0           1           1           0           1           1           0           1           1           0
 AtZEff=   0.0000000   0.0000000   0.0000000   0.0000000   0.0000000   0.0000000   0.0000000   0.0000000   0.0000000   0.0000000
 NQMom=    0.0000000   0.0000000   0.0000000   0.0000000   0.0000000   0.0000000   0.0000000   0.0000000   0.0000000   0.0000000
 NMagM=    0.0000000   2.7928460   2.7928460   0.0000000   2.7928460   2.7928460   0.0000000   2.7928460   2.7928460   0.0000000
 AtZNuc=   8.0000000   1.0000000   1.0000000   8.0000000   1.0000000   1.0000000   8.0000000   1.0000000   1.0000000   8.0000000

  Atom       231         232         233         234         235         236         237         238         239         240
 IAtWgt=           1           1          16           1           1          16           1           1          16           1
 AtmWgt=   1.0078250   1.0078250  15.9949146   1.0078250   1.0078250  15.9949146   1.0078250   1.0078250  15.9949146   1.0078250
 NucSpn=           1           1           0           1           1           0           1           1           0           1
 AtZEff=   0.0000000   0.0000000   0.0000000   0.0000000   0.0000000   0.0000000   0.0000000   0.0000000   0.0000000   0.0000000
 NQMom=    0.0000000   0.0000000   0.0000000   0.0000000   0.0000000   0.0000000   0.0000000   0.0000000   0.0000000   0.0000000
 NMagM=    2.7928460   2.7928460   0.0000000   2.7928460   2.7928460   0.0000000   2.7928460   2.7928460   0.0000000   2.7928460
 AtZNuc=   1.0000000   1.0000000   8.0000000   1.0000000   1.0000000   8.0000000   1.0000000   1.0000000   8.0000000   1.0000000

  Atom       241         242         243         244         245         246         247         248         249         250
 IAtWgt=           1          16           1           1          16           1           1          16           1           1
 AtmWgt=   1.0078250  15.9949146   1.0078250   1.0078250  15.9949146   1.0078250   1.0078250  15.9949146   1.0078250   1.0078250
 NucSpn=           1           0           1           1           0           1           1           0           1           1
 AtZEff=   0.0000000   0.0000000   0.0000000   0.0000000   0.0000000   0.0000000   0.0000000   0.0000000   0.0000000   0.0000000
 NQMom=    0.0000000   0.0000000   0.0000000   0.0000000   0.0000000   0.0000000   0.0000000   0.0000000   0.0000000   0.0000000
 NMagM=    2.7928460   0.0000000   2.7928460   2.7928460   0.0000000   2.7928460   2.7928460   0.0000000   2.7928460   2.7928460
 AtZNuc=   1.0000000   8.0000000   1.0000000   1.0000000   8.0000000   1.0000000   1.0000000   8.0000000   1.0000000   1.0000000

  Atom       251         252         253         254         255         256         257         258         259         260
 IAtWgt=          16           1           1          16           1           1          16           1           1          16
 AtmWgt=  15.9949146   1.0078250   1.0078250  15.9949146   1.0078250   1.0078250  15.9949146   1.0078250   1.0078250  15.9949146
 NucSpn=           0           1           1           0           1           1           0           1           1           0
 AtZEff=   0.0000000   0.0000000   0.0000000   0.0000000   0.0000000   0.0000000   0.0000000   0.0000000   0.0000000   0.0000000
 NQMom=    0.0000000   0.0000000   0.0000000   0.0000000   0.0000000   0.0000000   0.0000000   0.0000000   0.0000000   0.0000000
 NMagM=    0.0000000   2.7928460   2.7928460   0.0000000   2.7928460   2.7928460   0.0000000   2.7928460   2.7928460   0.0000000
 AtZNuc=   8.0000000   1.0000000   1.0000000   8.0000000   1.0000000   1.0000000   8.0000000   1.0000000   1.0000000   8.0000000

  Atom       261         262         263         264         265         266         267         268         269         270
 IAtWgt=           1           1          16           1           1          16           1           1          16           1
 AtmWgt=   1.0078250   1.0078250  15.9949146   1.0078250   1.0078250  15.9949146   1.0078250   1.0078250  15.9949146   1.0078250
 NucSpn=           1           1           0           1           1           0           1           1           0           1
 AtZEff=   0.0000000   0.0000000   0.0000000   0.0000000   0.0000000   0.0000000   0.0000000   0.0000000   0.0000000   0.0000000
 NQMom=    0.0000000   0.0000000   0.0000000   0.0000000   0.0000000   0.0000000   0.0000000   0.0000000   0.0000000   0.0000000
 NMagM=    2.7928460   2.7928460   0.0000000   2.7928460   2.7928460   0.0000000   2.7928460   2.7928460   0.0000000   2.7928460
 AtZNuc=   1.0000000   1.0000000   8.0000000   1.0000000   1.0000000   8.0000000   1.0000000   1.0000000   8.0000000   1.0000000

  Atom       271         272         273         274         275         276         277         278         279         280
 IAtWgt=           1          16           1           1          16           1           1          16           1           1
 AtmWgt=   1.0078250  15.9949146   1.0078250   1.0078250  15.9949146   1.0078250   1.0078250  15.9949146   1.0078250   1.0078250
 NucSpn=           1           0           1           1           0           1           1           0           1           1
 AtZEff=   0.0000000   0.0000000   0.0000000   0.0000000   0.0000000   0.0000000   0.0000000   0.0000000   0.0000000   0.0000000
 NQMom=    0.0000000   0.0000000   0.0000000   0.0000000   0.0000000   0.0000000   0.0000000   0.0000000   0.0000000   0.0000000
 NMagM=    2.7928460   0.0000000   2.7928460   2.7928460   0.0000000   2.7928460   2.7928460   0.0000000   2.7928460   2.7928460
 AtZNuc=   1.0000000   8.0000000   1.0000000   1.0000000   8.0000000   1.0000000   1.0000000   8.0000000   1.0000000   1.0000000

  Atom       281         282         283         284         285         286         287         288         289         290
 IAtWgt=          16           1           1          16           1           1          16           1           1          16
 AtmWgt=  15.9949146   1.0078250   1.0078250  15.9949146   1.0078250   1.0078250  15.9949146   1.0078250   1.0078250  15.9949146
 NucSpn=           0           1           1           0           1           1           0           1           1           0
 AtZEff=   0.0000000   0.0000000   0.0000000   0.0000000   0.0000000   0.0000000   0.0000000   0.0000000   0.0000000   0.0000000
 NQMom=    0.0000000   0.0000000   0.0000000   0.0000000   0.0000000   0.0000000   0.0000000   0.0000000   0.0000000   0.0000000
 NMagM=    0.0000000   2.7928460   2.7928460   0.0000000   2.7928460   2.7928460   0.0000000   2.7928460   2.7928460   0.0000000
 AtZNuc=   8.0000000   1.0000000   1.0000000   8.0000000   1.0000000   1.0000000   8.0000000   1.0000000   1.0000000   8.0000000

  Atom       291         292         293         294         295         296         297         298         299         300
 IAtWgt=           1           1          16           1           1          16           1           1          16           1
 AtmWgt=   1.0078250   1.0078250  15.9949146   1.0078250   1.0078250  15.9949146   1.0078250   1.0078250  15.9949146   1.0078250
 NucSpn=           1           1           0           1           1           0           1           1           0           1
 AtZEff=   0.0000000   0.0000000   0.0000000   0.0000000   0.0000000   0.0000000   0.0000000   0.0000000   0.0000000   0.0000000
 NQMom=    0.0000000   0.0000000   0.0000000   0.0000000   0.0000000   0.0000000   0.0000000   0.0000000   0.0000000   0.0000000
 NMagM=    2.7928460   2.7928460   0.0000000   2.7928460   2.7928460   0.0000000   2.7928460   2.7928460   0.0000000   2.7928460
 AtZNuc=   1.0000000   1.0000000   8.0000000   1.0000000   1.0000000   8.0000000   1.0000000   1.0000000   8.0000000   1.0000000

  Atom       301         302         303         304         305         306         307         308         309         310
 IAtWgt=           1          16           1           1          16           1           1          16           1           1
 AtmWgt=   1.0078250  15.9949146   1.0078250   1.0078250  15.9949146   1.0078250   1.0078250  15.9949146   1.0078250   1.0078250
 NucSpn=           1           0           1           1           0           1           1           0           1           1
 AtZEff=   0.0000000   0.0000000   0.0000000   0.0000000   0.0000000   0.0000000   0.0000000   0.0000000   0.0000000   0.0000000
 NQMom=    0.0000000   0.0000000   0.0000000   0.0000000   0.0000000   0.0000000   0.0000000   0.0000000   0.0000000   0.0000000
 NMagM=    2.7928460   0.0000000   2.7928460   2.7928460   0.0000000   2.7928460   2.7928460   0.0000000   2.7928460   2.7928460
 AtZNuc=   1.0000000   8.0000000   1.0000000   1.0000000   8.0000000   1.0000000   1.0000000   8.0000000   1.0000000   1.0000000

  Atom       311         312         313         314         315         316         317         318         319         320
 IAtWgt=          16           1           1          16           1           1          16           1           1          16
 AtmWgt=  15.9949146   1.0078250   1.0078250  15.9949146   1.0078250   1.0078250  15.9949146   1.0078250   1.0078250  15.9949146
 NucSpn=           0           1           1           0           1           1           0           1           1           0
 AtZEff=   0.0000000   0.0000000   0.0000000   0.0000000   0.0000000   0.0000000   0.0000000   0.0000000   0.0000000   0.0000000
 NQMom=    0.0000000   0.0000000   0.0000000   0.0000000   0.0000000   0.0000000   0.0000000   0.0000000   0.0000000   0.0000000
 NMagM=    0.0000000   2.7928460   2.7928460   0.0000000   2.7928460   2.7928460   0.0000000   2.7928460   2.7928460   0.0000000
 AtZNuc=   8.0000000   1.0000000   1.0000000   8.0000000   1.0000000   1.0000000   8.0000000   1.0000000   1.0000000   8.0000000

  Atom       321         322         323         324         325         326         327         328         329         330
 IAtWgt=           1           1          16           1           1          16           1           1          16           1
 AtmWgt=   1.0078250   1.0078250  15.9949146   1.0078250   1.0078250  15.9949146   1.0078250   1.0078250  15.9949146   1.0078250
 NucSpn=           1           1           0           1           1           0           1           1           0           1
 AtZEff=   0.0000000   0.0000000   0.0000000   0.0000000   0.0000000   0.0000000   0.0000000   0.0000000   0.0000000   0.0000000
 NQMom=    0.0000000   0.0000000   0.0000000   0.0000000   0.0000000   0.0000000   0.0000000   0.0000000   0.0000000   0.0000000
 NMagM=    2.7928460   2.7928460   0.0000000   2.7928460   2.7928460   0.0000000   2.7928460   2.7928460   0.0000000   2.7928460
 AtZNuc=   1.0000000   1.0000000   8.0000000   1.0000000   1.0000000   8.0000000   1.0000000   1.0000000   8.0000000   1.0000000

  Atom       331         332         333         334         335         336         337         338         339         340
 IAtWgt=           1          16           1           1          16           1           1          16           1           1
 AtmWgt=   1.0078250  15.9949146   1.0078250   1.0078250  15.9949146   1.0078250   1.0078250  15.9949146   1.0078250   1.0078250
 NucSpn=           1           0           1           1           0           1           1           0           1           1
 AtZEff=   0.0000000   0.0000000   0.0000000   0.0000000   0.0000000   0.0000000   0.0000000   0.0000000   0.0000000   0.0000000
 NQMom=    0.0000000   0.0000000   0.0000000   0.0000000   0.0000000   0.0000000   0.0000000   0.0000000   0.0000000   0.0000000
 NMagM=    2.7928460   0.0000000   2.7928460   2.7928460   0.0000000   2.7928460   2.7928460   0.0000000   2.7928460   2.7928460
 AtZNuc=   1.0000000   8.0000000   1.0000000   1.0000000   8.0000000   1.0000000   1.0000000   8.0000000   1.0000000   1.0000000

  Atom       341         342         343         344         345         346         347         348         349         350
 IAtWgt=          16           1           1          16           1           1          16           1           1          16
 AtmWgt=  15.9949146   1.0078250   1.0078250  15.9949146   1.0078250   1.0078250  15.9949146   1.0078250   1.0078250  15.9949146
 NucSpn=           0           1           1           0           1           1           0           1           1           0
 AtZEff=   0.0000000   0.0000000   0.0000000   0.0000000   0.0000000   0.0000000   0.0000000   0.0000000   0.0000000   0.0000000
 NQMom=    0.0000000   0.0000000   0.0000000   0.0000000   0.0000000   0.0000000   0.0000000   0.0000000   0.0000000   0.0000000
 NMagM=    0.0000000   2.7928460   2.7928460   0.0000000   2.7928460   2.7928460   0.0000000   2.7928460   2.7928460   0.0000000
 AtZNuc=   8.0000000   1.0000000   1.0000000   8.0000000   1.0000000   1.0000000   8.0000000   1.0000000   1.0000000   8.0000000

  Atom       351         352         353         354         355         356         357         358         359         360
 IAtWgt=           1           1          16           1           1          16           1           1          16           1
 AtmWgt=   1.0078250   1.0078250  15.9949146   1.0078250   1.0078250  15.9949146   1.0078250   1.0078250  15.9949146   1.0078250
 NucSpn=           1           1           0           1           1           0           1           1           0           1
 AtZEff=   0.0000000   0.0000000   0.0000000   0.0000000   0.0000000   0.0000000   0.0000000   0.0000000   0.0000000   0.0000000
 NQMom=    0.0000000   0.0000000   0.0000000   0.0000000   0.0000000   0.0000000   0.0000000   0.0000000   0.0000000   0.0000000
 NMagM=    2.7928460   2.7928460   0.0000000   2.7928460   2.7928460   0.0000000   2.7928460   2.7928460   0.0000000   2.7928460
 AtZNuc=   1.0000000   1.0000000   8.0000000   1.0000000   1.0000000   8.0000000   1.0000000   1.0000000   8.0000000   1.0000000

  Atom       361         362         363         364         365         366         367         368         369         370
 IAtWgt=           1          16           1           1          16           1           1          16           1           1
 AtmWgt=   1.0078250  15.9949146   1.0078250   1.0078250  15.9949146   1.0078250   1.0078250  15.9949146   1.0078250   1.0078250
 NucSpn=           1           0           1           1           0           1           1           0           1           1
 AtZEff=   0.0000000   0.0000000   0.0000000   0.0000000   0.0000000   0.0000000   0.0000000   0.0000000   0.0000000   0.0000000
 NQMom=    0.0000000   0.0000000   0.0000000   0.0000000   0.0000000   0.0000000   0.0000000   0.0000000   0.0000000   0.0000000
 NMagM=    2.7928460   0.0000000   2.7928460   2.7928460   0.0000000   2.7928460   2.7928460   0.0000000   2.7928460   2.7928460
 AtZNuc=   1.0000000   8.0000000   1.0000000   1.0000000   8.0000000   1.0000000   1.0000000   8.0000000   1.0000000   1.0000000

  Atom       371         372         373         374         375         376         377         378         379         380
 IAtWgt=          16           1           1          16           1           1          16           1           1          16
 AtmWgt=  15.9949146   1.0078250   1.0078250  15.9949146   1.0078250   1.0078250  15.9949146   1.0078250   1.0078250  15.9949146
 NucSpn=           0           1           1           0           1           1           0           1           1           0
 AtZEff=   0.0000000   0.0000000   0.0000000   0.0000000   0.0000000   0.0000000   0.0000000   0.0000000   0.0000000   0.0000000
 NQMom=    0.0000000   0.0000000   0.0000000   0.0000000   0.0000000   0.0000000   0.0000000   0.0000000   0.0000000   0.0000000
 NMagM=    0.0000000   2.7928460   2.7928460   0.0000000   2.7928460   2.7928460   0.0000000   2.7928460   2.7928460   0.0000000
 AtZNuc=   8.0000000   1.0000000   1.0000000   8.0000000   1.0000000   1.0000000   8.0000000   1.0000000   1.0000000   8.0000000

  Atom       381         382         383         384         385
 IAtWgt=           1           1          16           1           1
 AtmWgt=   1.0078250   1.0078250  15.9949146   1.0078250   1.0078250
 NucSpn=           1           1           0           1           1
 AtZEff=   0.0000000   0.0000000   0.0000000   0.0000000   0.0000000
 NQMom=    0.0000000   0.0000000   0.0000000   0.0000000   0.0000000
 NMagM=    2.7928460   2.7928460   0.0000000   2.7928460   2.7928460
 AtZNuc=   1.0000000   1.0000000   8.0000000   1.0000000   1.0000000
 Leave Link  101 at Thu May 10 06:44:38 2018, MaxMem= 14763950080 cpu:        33.3
 (Enter /cm/shared/gaussian/g09.e01/intel64-sandybridge/g09/l103.exe)

 GradGradGradGradGradGradGradGradGradGradGradGradGradGradGradGradGradGrad
 Berny optimization.
 Initialization pass.
 Trust Radius=3.00D-01 FncErr=1.00D-07 GrdErr=1.00D-07
 Number of steps in this run=      2 maximum allowed number of steps=      2.
 GradGradGradGradGradGradGradGradGradGradGradGradGradGradGradGradGradGrad

 Leave Link  103 at Thu May 10 06:44:38 2018, MaxMem= 14763950080 cpu:         3.7
 (Enter /cm/shared/gaussian/g09.e01/intel64-sandybridge/g09/l202.exe)
 Symmetry turned off by external request.
 Stoichiometry    BrH256O128(1-)
 Framework group  C1[X(BrH256O128)]
 Deg. of freedom  1149
 Full point group                 C1      NOp   1
                          Input orientation:                          
 ---------------------------------------------------------------------
 Center     Atomic      Atomic             Coordinates (Angstroms)
 Number     Number       Type             X           Y           Z
 ---------------------------------------------------------------------
      1         35           0       20.000000   20.000000   20.000000
      2          8           0       19.970000   22.980000   20.630000
      3          1           0       20.910000   23.150000   20.610000
      4          1           0       19.870000   22.100000   20.270000
      5          8           0       16.940000   19.660000   19.390000
      6          1           0       16.890000   19.430000   18.460000
      7          1           0       17.870000   19.730000   19.570000
      8          8           0       19.140000   21.090000   17.150000
      9          1           0       18.640000   20.360000   16.790000
     10          1           0       19.520000   20.740000   17.960000
     11          8           0       20.470000   17.980000   17.340000
     12          1           0       20.020000   17.180000   17.610000
     13          1           0       20.460000   18.530000   18.130000
     14          8           0       18.990000   16.950000   20.670000
     15          1           0       19.830000   16.520000   20.530000
     16          1           0       19.220000   17.840000   20.930000
     17          8           0       19.160000   20.470000   23.300000
     18          1           0       19.460000   19.790000   23.900000
     19          1           0       19.490000   20.190000   22.440000
     20          8           0       23.430000   19.660000   20.100000
     21          1           0       23.540000   18.940000   20.720000
     22          1           0       22.500000   19.620000   19.860000
     23          8           0       23.060000   22.440000   18.300000
     24          1           0       22.730000   21.730000   18.850000
     25          1           0       22.970000   22.110000   17.400000
     26          8           0       19.990000   23.900000   18.170000
     27          1           0       19.790000   23.620000   19.060000
     28          1           0       19.140000   24.080000   17.780000
     29          8           0       23.880000   21.650000   22.060000
     30          1           0       23.450000   20.910000   21.630000
     31          1           0       24.160000   21.300000   22.910000
     32          8           0       17.250000   23.410000   17.880000
     33          1           0       17.430000   22.500000   18.110000
     34          1           0       17.020000   23.380000   16.950000
     35          8           0       17.240000   23.710000   21.170000
     36          1           0       18.010000   23.490000   20.650000
     37          1           0       17.550000   23.690000   22.080000
     38          8           0       22.920000   17.300000   21.340000
     39          1           0       22.630000   17.370000   22.250000
     40          1           0       22.620000   16.440000   21.050000
     41          8           0       23.300000   17.330000   17.100000
     42          1           0       23.780000   18.110000   16.820000
     43          1           0       22.390000   17.600000   17.130000
     44          8           0       20.660000   23.190000   24.000000
     45          1           0       21.320000   23.070000   23.310000
     46          1           0       19.900000   22.690000   23.700000
     47          8           0       17.260000   15.510000   19.040000
     48          1           0       17.660000   16.060000   19.710000
     49          1           0       17.990000   15.050000   18.630000
     50          8           0       16.770000   21.470000   24.400000
     51          1           0       17.320000   21.090000   23.720000
     52          1           0       17.380000   21.860000   25.020000
     53          8           0       17.260000   19.250000   16.200000
     54          1           0       16.890000   19.990000   15.720000
     55          1           0       16.780000   18.490000   15.880000
     56          8           0       24.890000   19.860000   17.280000
     57          1           0       25.570000   20.320000   17.770000
     58          1           0       24.080000   20.330000   17.480000
     59          8           0       22.550000   20.610000   15.940000
     60          1           0       22.830000   19.820000   15.500000
     61          1           0       22.370000   21.230000   15.240000
     62          8           0       14.580000   18.100000   19.770000
     63          1           0       14.400000   18.630000   18.990000
     64          1           0       15.420000   18.440000   20.100000
     65          8           0       19.810000   18.060000   14.560000
     66          1           0       20.030000   18.890000   14.150000
     67          1           0       19.660000   18.280000   15.480000
     68          8           0       20.230000   22.200000   14.590000
     69          1           0       20.760000   22.980000   14.710000
     70          1           0       20.020000   21.900000   15.470000
     71          8           0       15.010000   22.060000   20.100000
     72          1           0       14.360000   22.570000   19.610000
     73          1           0       15.800000   22.590000   20.060000
     74          8           0       19.390000   18.460000   24.870000
     75          1           0       19.040000   17.590000   24.700000
     76          1           0       19.070000   18.680000   25.750000
     77          8           0       18.650000   16.020000   23.870000
     78          1           0       18.070000   16.330000   23.170000
     79          1           0       18.790000   15.100000   23.680000
     80          8           0       19.910000   15.250000   17.780000
     81          1           0       19.600000   14.480000   17.300000
     82          1           0       20.840000   15.110000   17.900000
     83          8           0       21.380000   14.960000   20.580000
     84          1           0       20.700000   14.330000   20.830000
     85          1           0       22.070000   14.430000   20.190000
     86          8           0       22.060000   17.010000   23.810000
     87          1           0       21.180000   16.920000   24.170000
     88          1           0       22.650000   16.760000   24.520000
     89          8           0       24.770000   23.450000   20.230000
     90          1           0       24.610000   22.630000   20.690000
     91          1           0       24.320000   23.360000   19.390000
     92          8           0       25.260000   16.350000   19.900000
     93          1           0       24.540000   16.980000   19.980000
     94          1           0       25.040000   15.830000   19.130000
     95          8           0       21.860000   25.000000   21.790000
     96          1           0       21.170000   25.490000   21.350000
     97          1           0       22.670000   25.440000   21.540000
     98          8           0       20.780000   20.510000   26.410000
     99          1           0       20.270000   20.540000   25.600000
    100          1           0       21.540000   21.070000   26.240000
    101          8           0       18.950000   25.200000   23.200000
    102          1           0       19.200000   25.120000   22.280000
    103          1           0       19.520000   24.570000   23.660000
    104          8           0       26.570000   19.280000   20.510000
    105          1           0       27.060000   19.330000   19.690000
    106          1           0       25.660000   19.430000   20.260000
    107          8           0       14.080000   20.440000   18.220000
    108          1           0       14.560000   21.040000   17.660000
    109          1           0       14.410000   20.620000   19.100000
    110          8           0       22.820000   25.400000   17.150000
    111          1           0       22.120000   24.800000   17.420000
    112          1           0       23.320000   24.900000   16.510000
    113          8           0       15.700000   16.460000   22.840000
    114          1           0       15.680000   17.390000   23.070000
    115          1           0       15.510000   16.440000   21.910000
    116          8           0       20.060000   26.060000   20.330000
    117          1           0       19.600000   26.910000   20.330000
    118          1           0       20.420000   25.990000   19.440000
    119          8           0       24.280000   23.930000   23.800000
    120          1           0       24.110000   24.850000   23.600000
    121          1           0       24.020000   23.460000   23.010000
    122          8           0       14.660000   23.880000   22.610000
    123          1           0       15.360000   23.360000   22.200000
    124          1           0       14.580000   24.650000   22.040000
    125          8           0       22.160000   16.250000   14.620000
    126          1           0       21.350000   16.500000   15.070000
    127          1           0       22.840000   16.780000   15.020000
    128          8           0       16.600000   25.970000   18.400000
    129          1           0       17.430000   26.410000   18.220000
    130          1           0       16.790000   25.040000   18.290000
    131          8           0       22.530000   14.630000   17.330000
    132          1           0       22.940000   13.860000   16.940000
    133          1           0       23.040000   15.370000   16.990000
    134          8           0       17.540000   23.050000   15.050000
    135          1           0       16.970000   22.380000   14.680000
    136          1           0       18.350000   22.980000   14.550000
    137          8           0       14.710000   19.230000   23.500000
    138          1           0       14.130000   18.760000   24.100000
    139          1           0       15.080000   19.930000   24.040000
    140          8           0       22.540000   22.280000   25.950000
    141          1           0       23.160000   22.990000   26.140000
    142          1           0       21.830000   22.710000   25.470000
    143          8           0       18.450000   16.040000   14.580000
    144          1           0       19.150000   16.690000   14.550000
    145          1           0       17.730000   16.480000   15.020000
    146          8           0       24.190000   25.990000   19.260000
    147          1           0       23.540000   25.830000   18.580000
    148          1           0       24.210000   25.170000   19.770000
    149          8           0       15.450000   15.050000   17.040000
    150          1           0       15.950000   15.100000   17.860000
    151          1           0       14.690000   14.510000   17.260000
    152          8           0       26.010000   16.980000   22.330000
    153          1           0       26.650000   17.600000   21.980000
    154          1           0       25.600000   16.600000   21.550000
    155          8           0       18.650000   22.840000   25.960000
    156          1           0       18.140000   23.600000   26.230000
    157          1           0       19.540000   23.030000   26.270000
    158          8           0       24.910000   20.600000   24.580000
    159          1           0       24.570000   19.990000   25.240000
    160          1           0       24.920000   21.450000   25.020000
    161          8           0       23.490000   19.350000   26.470000
    162          1           0       22.580000   19.290000   26.190000
    163          1           0       23.460000   19.870000   27.270000
    164          8           0       23.700000   18.680000   14.480000
    165          1           0       24.030000   18.030000   13.860000
    166          1           0       24.440000   19.270000   14.630000
    167          8           0       14.400000   15.090000   20.330000
    168          1           0       15.320000   15.000000   20.070000
    169          1           0       13.970000   14.300000   20.010000
    170          8           0       17.070000   20.540000   13.620000
    171          1           0       17.930000   20.160000   13.450000
    172          1           0       16.510000   20.160000   12.950000
    173          8           0       15.710000   17.270000   15.330000
    174          1           0       15.540000   16.540000   15.930000
    175          1           0       15.070000   17.150000   14.630000
    176          8           0       26.700000   21.550000   18.810000
    177          1           0       26.720000   21.790000   19.730000
    178          1           0       27.550000   21.150000   18.640000
    179          8           0       27.130000   20.400000   22.880000
    180          1           0       26.650000   19.980000   22.160000
    181          1           0       26.470000   20.610000   23.530000
    182          8           0       12.590000   18.930000   21.900000
    183          1           0       13.210000   18.700000   21.210000
    184          1           0       13.130000   19.180000   22.650000
    185          8           0       26.080000   16.500000   16.390000
    186          1           0       25.710000   17.210000   16.920000
    187          1           0       25.640000   16.580000   15.540000
    188          8           0       20.920000   20.240000   12.280000
    189          1           0       20.860000   20.920000   12.960000
    190          1           0       20.680000   20.700000   11.480000
    191          8           0       19.100000   25.850000   15.800000
    192          1           0       18.760000   26.520000   16.390000
    193          1           0       18.330000   25.340000   15.540000
    194          8           0       22.120000   25.540000   25.760000
    195          1           0       21.570000   26.310000   25.830000
    196          1           0       21.820000   25.100000   24.960000
    197          8           0       18.910000   13.600000   15.450000
    198          1           0       18.520000   13.090000   14.740000
    199          1           0       18.510000   14.470000   15.380000
    200          8           0       24.470000   14.430000   23.170000
    201          1           0       24.550000   15.340000   23.470000
    202          1           0       23.710000   14.100000   23.660000
    203          8           0       17.720000   19.120000   26.970000
    204          1           0       17.920000   20.020000   27.220000
    205          1           0       16.810000   19.150000   26.670000
    206          8           0       18.330000   15.330000   26.470000
    207          1           0       18.470000   15.290000   25.520000
[...]
   Z335      23.11135  -0.00769   0.00000  -0.00853  -0.00804  23.10331
   X336      35.90480  -0.00838   0.00000  -0.00980  -0.01008  35.89472
   Y336      28.64825   0.00404   0.00000   0.00002   0.00007  28.64831
   Z336      24.16960   0.00962   0.00000   0.01012   0.01063  24.18022
   X337      38.41813   0.01062   0.00000   0.00521   0.00490  38.42303
   Y337      27.91125  -0.00134   0.00000  -0.00619  -0.00604  27.90521
   Z337      23.03576   0.00039   0.00000   0.00091   0.00128  23.03704
   X338      51.07930  -0.00064   0.00000  -0.00070   0.00014  51.07944
   Y338      37.18981  -0.00233   0.00000  -0.00058   0.00055  37.19036
   Z338      50.19113   0.01267   0.00000   0.00886   0.00836  50.19949
   X339      52.68556   0.00630   0.00000   0.00300   0.00379  52.68936
   Y339      37.20871   0.00170   0.00000   0.00128   0.00247  37.21118
   Z339      49.35965  -0.00591   0.00000  -0.00419  -0.00479  49.35486
   X340      49.94546  -0.00309   0.00000  -0.00032   0.00042  49.94588
   Y340      37.94570   0.00489   0.00000   0.00296   0.00402  37.94972
   Z340      49.00060  -0.00856   0.00000  -0.00613  -0.00658  48.99402
   X341      35.86700   0.01132   0.00000   0.01285   0.01294  35.87994
   Y341      52.04306   0.01891   0.00000   0.01154   0.01197  52.05503
   Z341      48.52817  -0.00717   0.00000  -0.00713  -0.00700  48.52117
   X342      36.22605  -0.00188   0.00000  -0.00327  -0.00308  36.22297
   Y342      52.04306  -0.00381   0.00000  -0.00386  -0.00338  52.03968
   Z342      50.30451   0.00423   0.00000   0.00176   0.00188  50.30639
   X343      35.20560  -0.00141   0.00000   0.00358   0.00372  35.20932
   Y343      50.39900  -0.01397   0.00000  -0.00717  -0.00677  50.39223
   Z343      48.20691   0.00370   0.00000   0.00623   0.00643  48.21334
   X344      38.83387  -0.01818   0.00000  -0.01233  -0.01169  38.82218
   Y344      45.03217   0.00183   0.00000  -0.00379  -0.00316  45.02901
   Z344      52.79895  -0.00739   0.00000  -0.00334  -0.00325  52.79569
   X345      40.47793   0.01754   0.00000   0.00930   0.00999  40.48792
   Y345      44.33298  -0.01034   0.00000  -0.00970  -0.00899  44.32398
   Z345      52.98792   0.00080   0.00000  -0.00180  -0.00180  52.98612
   X346      38.45593  -0.00017   0.00000  -0.00021   0.00050  38.45643
   Y346      45.76917   0.00340   0.00000   0.00295   0.00359  45.77276
   Z346      54.40522   0.00605   0.00000   0.00406   0.00415  54.40936
   X347      44.08731   0.01352   0.00000   0.01296   0.01205  44.09936
   Y347      38.64490   0.00588   0.00000   0.00831   0.00867  38.65357
   Z347      21.01375  -0.00870   0.00000  -0.00677  -0.00689  21.00686
   X348      43.80385   0.00054   0.00000   0.00152   0.00053  43.80438
   Y348      38.34254  -0.00019   0.00000  -0.00093  -0.00061  38.34193
   Z348      19.23741   0.00151   0.00000  -0.00021  -0.00031  19.23710
   X349      42.44325  -0.00264   0.00000   0.00744   0.00659  42.44984
   Y349      38.47482  -0.00719   0.00000  -0.01098  -0.01068  38.46415
   Z349      21.76965   0.00821   0.00000   0.00901   0.00899  21.77863
   X350      34.01507  -0.03097   0.00000  -0.01976  -0.02067  33.99440
   Y350      52.98792  -0.01634   0.00000  -0.00769  -0.00760  52.98032
   Z350      31.84189   0.01404   0.00000   0.01086   0.01110  31.85298
   X351      32.67336  -0.00487   0.00000  -0.00982  -0.01076  32.66261
   Y351      54.12176  -0.00136   0.00000   0.00000   0.00003  54.12179
   Z351      32.29542   0.00364   0.00000   0.00666   0.00696  32.30238
   X352      35.35678   0.02803   0.00000   0.01943   0.01844  35.37522
   Y352      54.06506   0.01506   0.00000   0.00293   0.00307  54.06813
   Z352      31.29386  -0.00880   0.00000  -0.00335  -0.00321  31.29065
   X353      47.98015  -0.00567   0.00000  -0.01190  -0.01218  47.96796
   Y353      31.31276   0.00669   0.00000   0.00284   0.00345  31.31621
   Z353      26.13491  -0.00908   0.00000  -0.01508  -0.01531  26.11961
   X354      48.77383   0.00452   0.00000   0.00671   0.00633  48.78016
   Y354      31.19938  -0.00162   0.00000  -0.00346  -0.00283  31.19654
   Z354      24.50975  -0.00599   0.00000  -0.00803  -0.00831  24.50144
   X355      47.16756  -0.00512   0.00000  -0.00431  -0.00451  47.16305
   Y355      29.70649  -0.01026   0.00000  -0.00994  -0.00936  29.69714
   Z355      26.34278  -0.00068   0.00000  -0.00251  -0.00267  26.34012
   X356      47.75338  -0.01055   0.00000  -0.00644  -0.00712  47.74626
   Y356      53.57374   0.02772   0.00000   0.02046   0.02122  53.59496
   Z356      36.33943   0.00601   0.00000   0.00113   0.00056  36.33999
   X357      49.34075   0.01552   0.00000   0.01034   0.00963  49.35037
   Y357      53.29028  -0.00608   0.00000  -0.00464  -0.00382  53.28646
   Z357      35.56465  -0.00536   0.00000  -0.00001  -0.00066  35.56398
   X358      46.94080  -0.00173   0.00000   0.00363   0.00302  46.94382
   Y358      51.94857  -0.01548   0.00000  -0.00789  -0.00716  51.94141
   Z358      36.33943   0.00238   0.00000   0.00567   0.00517  36.34460
   X359      38.89056   0.01453   0.00000   0.00062   0.00201  38.89258
   Y359      26.28609   0.00140   0.00000   0.00186   0.00247  26.28856
   Z359      51.41945  -0.00077   0.00000   0.00052   0.00089  51.42034
   X360      38.43703  -0.00162   0.00000  -0.00059   0.00092  38.43795
   Y360      24.86880  -0.01098   0.00000  -0.00988  -0.00928  24.85952
   Z360      52.42100   0.00645   0.00000   0.00424   0.00466  52.42566
   X361      37.32209  -0.02276   0.00000  -0.02058  -0.01924  37.30285
   Y361      27.11757   0.01220   0.00000   0.01055   0.01109  27.12866
   Z361      51.07930  -0.00140   0.00000   0.00122   0.00167  51.08097
   X362      52.30762   0.00880   0.00000   0.01347   0.01317  52.32079
   Y362      35.43236   0.00898   0.00000   0.01436   0.01521  35.44758
   Z362      29.08289  -0.00943   0.00000  -0.01459  -0.01514  29.06775
   X363      53.97058   0.00220   0.00000   0.00417   0.00390  53.97448
   Y363      34.69537  -0.00258   0.00000  -0.00563  -0.00470  34.69067
   Z363      29.04509  -0.00155   0.00000  -0.00323  -0.00386  29.04123
   X364      51.55173  -0.00697   0.00000  -0.00987  -0.01023  51.54150
   Y364      34.86545  -0.00160   0.00000  -0.00335  -0.00255  34.86290
   Z364      27.53331   0.00026   0.00000   0.00161   0.00111  27.53442
   X365      44.33298  -0.00365   0.00000  -0.00490  -0.00369  44.32929
   Y365      31.72850  -0.00871   0.00000  -0.00873  -0.00786  31.72064
   Z365      52.42100   0.00572   0.00000   0.00686   0.00683  52.42783
   X366      44.95658   0.00177   0.00000  -0.00050   0.00066  44.95724
   Y366      33.39146   0.00601   0.00000   0.00241   0.00331  33.39477
   Z366      52.78005  -0.00666   0.00000  -0.01157  -0.01166  52.76839
   X367      43.87944  -0.00095   0.00000  -0.00288  -0.00154  43.87790
   Y367      31.04820   0.00042   0.00000  -0.00018   0.00069  31.04889
   Z367      54.04617   0.00232   0.00000   0.00714   0.00715  54.05332
   X368      29.76319  -0.01325   0.00000  -0.00660  -0.00761  29.75558
   Y368      43.61488  -0.00287   0.00000  -0.00331  -0.00355  43.61133
   Z368      23.03576   0.00202   0.00000  -0.00349  -0.00287  23.03289
   X369      31.40725   0.01402   0.00000   0.01060   0.00961  31.41686
   Y369      42.95348  -0.00603   0.00000  -0.00481  -0.00498  42.94849
   Z369      22.75230   0.00106   0.00000   0.00389   0.00443  22.75673
   X370      29.76319  -0.00020   0.00000   0.00014  -0.00099  29.76220
   Y370      45.22115   0.00767   0.00000   0.00668   0.00643  45.22757
   Z370      22.20428  -0.00221   0.00000  -0.00071  -0.00011  22.20417
   X371      27.77897  -0.00982   0.00000  -0.00499  -0.00544  27.77354
   Y371      32.23873   0.01378   0.00000   0.01006   0.00975  32.24848
   Z371      24.07511   0.00592   0.00000   0.00109   0.00201  24.07712
   X372      29.53642   0.01171   0.00000   0.00882   0.00835  29.54477
   Y372      32.48439  -0.00348   0.00000  -0.00532  -0.00556  32.47884
   Z372      23.73496  -0.00263   0.00000  -0.00208  -0.00127  23.73369
   X373      27.45772   0.00061   0.00000   0.00179   0.00139  27.45911
   Y373      30.53797  -0.01180   0.00000  -0.00644  -0.00677  30.53121
   Z373      23.56488  -0.00189   0.00000   0.00066   0.00163  23.56651
   X374      19.89882  -0.00899   0.00000  -0.00769  -0.00745  19.89137
   Y374      34.56309  -0.00730   0.00000  -0.00296  -0.00341  34.55968
   Z374      37.83232  -0.01587   0.00000  -0.01005  -0.00871  37.82361
   X375      20.93817   0.01002   0.00000   0.00555   0.00587  20.94403
   Y375      34.80876   0.00386   0.00000   0.00267   0.00230  34.81105
   Z375      39.28741   0.01468   0.00000   0.00667   0.00794  39.29534
   X376      18.63270  -0.00646   0.00000  -0.00756  -0.00736  18.62534
   Y376      35.84810   0.00483   0.00000   0.00385   0.00335  35.85146
   Z376      37.96460   0.00611   0.00000   0.00764   0.00903  37.97362
   X377      25.83256  -0.00202   0.00000   0.00412   0.00334  25.83590
   Y377      42.84009   0.00966   0.00000   0.00402   0.00366  42.84375
   Z377      26.41837   0.01241   0.00000   0.00869   0.00955  26.42792
   X378      27.19316   0.01046   0.00000   0.00799   0.00713  27.20029
   Y378      42.97237   0.00199   0.00000   0.00306   0.00274  42.97511
   Z378      25.22784  -0.01051   0.00000  -0.00906  -0.00827  25.21957
   X379      25.26564  -0.00530   0.00000  -0.00443  -0.00514  25.26050
   Y379      41.13934  -0.01262   0.00000  -0.00770  -0.00808  41.13125
   Z379      26.26719  -0.00032   0.00000   0.00046   0.00138  26.26857
   X380      51.60842   0.01837   0.00000   0.01485   0.01571  51.62413
   Y380      26.45617  -0.00293   0.00000  -0.00260  -0.00157  26.45460
   Z380      42.34876   0.00897   0.00000   0.00351   0.00315  42.35191
   X381      51.06040  -0.00538   0.00000  -0.00691  -0.00604  51.05436
   Y381      27.79787  -0.00057   0.00000  -0.00270  -0.00168  27.79619
   Z381      43.46370  -0.00481   0.00000  -0.00609  -0.00644  43.45726
   X382      50.43679  -0.01303   0.00000  -0.01044  -0.00965  50.42714
   Y382      26.51286   0.00539   0.00000   0.00535   0.00631  26.51917
   Z382      40.98816  -0.00388   0.00000   0.00411   0.00381  40.99197
   X383      38.19137  -0.00236   0.00000  -0.00071  -0.00179  38.18957
   Y383      54.63198   0.02194   0.00000   0.01306   0.01331  54.64529
   Z383      30.17893   0.01657   0.00000   0.00602   0.00598  30.18491
   X384      37.98350   0.00989   0.00000   0.01878   0.01766  38.00115
   Y384      53.59263  -0.01813   0.00000  -0.01169  -0.01148  53.58115
   Z384      28.72384  -0.02333   0.00000  -0.01669  -0.01670  28.70714
   X385      39.32520   0.00482   0.00000   0.00587   0.00489  39.33009
   Y385      53.68712  -0.00202   0.00000   0.00079   0.00110  53.68822
   Z385      31.23717  -0.00207   0.00000  -0.00392  -0.00401  31.23316
         Item               Value     Threshold  Converged?
 Maximum Force            0.035546     0.000450     NO 
 RMS     Force            0.011016     0.000300     NO 
 Maximum Displacement     0.030840     0.001800     NO 
 RMS     Displacement     0.008811     0.001200     NO 
 Predicted change in Energy=-7.772287D-02
 GradGradGradGradGradGradGradGradGradGradGradGradGradGradGradGradGradGrad

 Leave Link  103 at Thu May 10 08:57:01 2018, MaxMem= 14763950080 cpu:      2680.1
 (Enter /cm/shared/gaussian/g09.e01/intel64-sandybridge/g09/l9999.exe)
 1\1\GINC-POPLE08\Force\RPBE1PBE\CC-pVDZ\Br1H256O128(1-)\M.PELUSO\10-Ma
 y-2018\0\\#p PBE1PBE/cc-pvDZ force Counterpoise=2 noSymm\\forces on ch
 loride comput - NWATER: 128\\-1,1\Br,20.,20.,20.\O,19.97,22.98,20.63\H
 ,20.91,23.15,20.61\H,19.87,22.1,20.27\O,16.94,19.66,19.39\H,16.89,19.4
 3,18.46\H,17.87,19.73,19.57\O,19.14,21.09,17.15\H,18.64,20.36,16.79\H,
 19.52,20.74,17.96\O,20.47,17.98,17.34\H,20.02,17.18,17.61\H,20.46,18.5
 3,18.13\O,18.99,16.95,20.67\H,19.83,16.52,20.53\H,19.22,17.84,20.93\O,
 19.16,20.47,23.3\H,19.46,19.79,23.9\H,19.49,20.19,22.44\O,23.43,19.66,
 20.1\H,23.54,18.94,20.72\H,22.5,19.62,19.86\O,23.06,22.44,18.3\H,22.73
 ,21.73,18.85\H,22.97,22.11,17.4\O,19.99,23.9,18.17\H,19.79,23.62,19.06
 \H,19.14,24.08,17.78\O,23.88,21.65,22.06\H,23.45,20.91,21.63\H,24.16,2
 1.3,22.91\O,17.25,23.41,17.88\H,17.43,22.5,18.11\H,17.02,23.38,16.95\O
 ,17.24,23.71,21.17\H,18.01,23.49,20.65\H,17.55,23.69,22.08\O,22.92,17.
 3,21.34\H,22.63,17.37,22.25\H,22.62,16.44,21.05\O,23.3,17.33,17.1\H,23
 .78,18.11,16.82\H,22.39,17.6,17.13\O,20.66,23.19,24.\H,21.32,23.07,23.
 31\H,19.9,22.69,23.7\O,17.26,15.51,19.04\H,17.66,16.06,19.71\H,17.99,1
 5.05,18.63\O,16.77,21.47,24.4\H,17.32,21.09,23.72\H,17.38,21.86,25.02\
 O,17.26,19.25,16.2\H,16.89,19.99,15.72\H,16.78,18.49,15.88\O,24.89,19.
 86,17.28\H,25.57,20.32,17.77\H,24.08,20.33,17.48\O,22.55,20.61,15.94\H
 ,22.83,19.82,15.5\H,22.37,21.23,15.24\O,14.58,18.1,19.77\H,14.4,18.63,
 18.99\H,15.42,18.44,20.1\O,19.81,18.06,14.56\H,20.03,18.89,14.15\H,19.
 66,18.28,15.48\O,20.23,22.2,14.59\H,20.76,22.98,14.71\H,20.02,21.9,15.
 47\O,15.01,22.06,20.1\H,14.36,22.57,19.61\H,15.8,22.59,20.06\O,19.39,1
 8.46,24.87\H,19.04,17.59,24.7\H,19.07,18.68,25.75\O,18.65,16.02,23.87\
 H,18.07,16.33,23.17\H,18.79,15.1,23.68\O,19.91,15.25,17.78\H,19.6,14.4
 8,17.3\H,20.84,15.11,17.9\O,21.38,14.96,20.58\H,20.7,14.33,20.83\H,22.
 07,14.43,20.19\O,22.06,17.01,23.81\H,21.18,16.92,24.17\H,22.65,16.76,2
 4.52\O,24.77,23.45,20.23\H,24.61,22.63,20.69\H,24.32,23.36,19.39\O,25.
 26,16.35,19.9\H,24.54,16.98,19.98\H,25.04,15.83,19.13\O,21.86,25.,21.7
 9\H,21.17,25.49,21.35\H,22.67,25.44,21.54\O,20.78,20.51,26.41\H,20.27,
 20.54,25.6\H,21.54,21.07,26.24\O,18.95,25.2,23.2\H,19.2,25.12,22.28\H,
 19.52,24.57,23.66\O,26.57,19.28,20.51\H,27.06,19.33,19.69\H,25.66,19.4
 3,20.26\O,14.08,20.44,18.22\H,14.56,21.04,17.66\H,14.41,20.62,19.1\O,2
 2.82,25.4,17.15\H,22.12,24.8,17.42\H,23.32,24.9,16.51\O,15.7,16.46,22.
 84\H,15.68,17.39,23.07\H,15.51,16.44,21.91\O,20.06,26.06,20.33\H,19.6,
 26.91,20.33\H,20.42,25.99,19.44\O,24.28,23.93,23.8\H,24.11,24.85,23.6\
 H,24.02,23.46,23.01\O,14.66,23.88,22.61\H,15.36,23.36,22.2\H,14.58,24.
 65,22.04\O,22.16,16.25,14.62\H,21.35,16.5,15.07\H,22.84,16.78,15.02\O,
 16.6,25.97,18.4\H,17.43,26.41,18.22\H,16.79,25.04,18.29\O,22.53,14.63,
 17.33\H,22.94,13.86,16.94\H,23.04,15.37,16.99\O,17.54,23.05,15.05\H,16
 .97,22.38,14.68\H,18.35,22.98,14.55\O,14.71,19.23,23.5\H,14.13,18.76,2
 4.1\H,15.08,19.93,24.04\O,22.54,22.28,25.95\H,23.16,22.99,26.14\H,21.8
 3,22.71,25.47\O,18.45,16.04,14.58\H,19.15,16.69,14.55\H,17.73,16.48,15
 .02\O,24.19,25.99,19.26\H,23.54,25.83,18.58\H,24.21,25.17,19.77\O,15.4
 5,15.05,17.04\H,15.95,15.1,17.86\H,14.69,14.51,17.26\O,26.01,16.98,22.
 33\H,26.65,17.6,21.98\H,25.6,16.6,21.55\O,18.65,22.84,25.96\H,18.14,23
 .6,26.23\H,19.54,23.03,26.27\O,24.91,20.6,24.58\H,24.57,19.99,25.24\H,
 24.92,21.45,25.02\O,23.49,19.35,26.47\H,22.58,19.29,26.19\H,23.46,19.8
 7,27.27\O,23.7,18.68,14.48\H,24.03,18.03,13.86\H,24.44,19.27,14.63\O,1
 4.4,15.09,20.33\H,15.32,15.,20.07\H,13.97,14.3,20.01\O,17.07,20.54,13.
 62\H,17.93,20.16,13.45\H,16.51,20.16,12.95\O,15.71,17.27,15.33\H,15.54
 ,16.54,15.93\H,15.07,17.15,14.63\O,26.7,21.55,18.81\H,26.72,21.79,19.7
 3\H,27.55,21.15,18.64\O,27.13,20.4,22.88\H,26.65,19.98,22.16\H,26.47,2
 0.61,23.53\O,12.59,18.93,21.9\H,13.21,18.7,21.21\H,13.13,19.18,22.65\O
 ,26.08,16.5,16.39\H,25.71,17.21,16.92\H,25.64,16.58,15.54\O,20.92,20.2
 4,12.28\H,20.86,20.92,12.96\H,20.68,20.7,11.48\O,19.1,25.85,15.8\H,18.
 76,26.52,16.39\H,18.33,25.34,15.54\O,22.12,25.54,25.76\H,21.57,26.31,2
 5.83\H,21.82,25.1,24.96\O,18.91,13.6,15.45\H,18.52,13.09,14.74\H,18.51
 ,14.47,15.38\O,24.47,14.43,23.17\H,24.55,15.34,23.47\H,23.71,14.1,23.6
 6\O,17.72,19.12,26.97\H,17.92,20.02,27.22\H,16.81,19.15,26.67\O,18.33,
 15.33,26.47\H,18.47,15.29,25.52\H,17.41,15.59,26.57\O,15.83,16.28,25.8
 9\H,15.11,15.66,26.\H,15.63,16.73,25.06\O,20.63,18.53,28.14\H,20.74,17
 .68,27.7\H,20.48,19.15,27.42\O,24.64,23.8,15.44\H,25.34,23.82,16.09\H,
 25.02,24.23,14.67\O,12.22,21.83,22.56\H,12.21,20.88,22.49\H,13.11,22.0
 8,22.32\O,13.58,24.27,19.04\H,13.92,24.13,18.16\H,12.69,23.93,19.01\O,
 18.48,13.08,23.1\H,19.13,12.87,22.44\H,17.64,13.,22.65\O,14.3,23.62,16
 .52\H,14.35,24.55,16.28\H,14.34,23.16,15.69\O,16.07,26.19,24.08\H,16.9
 ,25.94,23.67\H,15.42,26.08,23.39\O,26.21,17.4,24.92\H,26.05,17.46,23.9
 8\H,26.56,18.25,25.17\O,20.45,28.,22.83\H,21.05,27.91,22.09\H,20.11,27
 .12,22.97\O,27.04,23.35,23.33\H,27.08,22.41,23.46\H,26.12,23.57,23.45\
 O,14.11,23.15,25.26\H,14.25,23.51,24.38\H,14.85,22.56,25.4\O,27.7,24.0
 9,20.77\H,26.79,24.,20.5\H,27.75,23.62,21.6\O,25.61,20.79,14.01\H,25.9
 9,21.1,14.83\H,24.94,21.43,13.79\O,27.01,23.26,16.75\H,27.39,22.63,16.
 14\H,27.1,22.84,17.61\O,27.69,18.83,17.96\H,27.59,18.93,17.01\H,28.24,
 18.05,18.06\O,22.27,24.07,13.28\H,23.12,23.95,13.7\H,22.44,23.89,12.35
 \O,15.08,19.32,26.36\H,14.96,18.4,26.6\H,14.34,19.77,26.77\O,13.87,14.
 51,23.32\H,14.65,15.01,23.53\H,13.37,15.07,22.73\O,23.42,12.61,20.07\H
 ,23.2,12.48,19.14\H,24.37,12.65,20.09\O,24.28,26.48,22.52\H,24.22,27.3
 2,22.05\H,24.61,26.72,23.38\O,15.27,26.59,21.54\H,15.04,26.47,20.62\H,
 15.99,27.22,21.53\O,22.62,14.97,25.89\H,23.06,15.54,26.53\H,21.81,14.7
 1,26.32\O,12.23,16.33,21.68\H,12.39,17.14,22.16\H,12.67,16.46,20.84\O,
 20.77,26.8,14.06\H,20.35,26.22,14.69\H,21.7,26.62,14.15\O,11.32,19.5,1
 7.65\H,12.03,20.03,18.02\H,10.82,19.21,18.41\O,19.36,11.83,20.73\H,19.
 33,11.77,19.78\H,20.28,11.7,20.95\O,16.49,12.33,19.79\H,17.31,11.98,20
 .13\H,16.09,12.78,20.54\O,21.97,13.39,14.44\H,22.3,14.22,14.08\H,21.13
 ,13.63,14.84\O,16.29,13.81,14.46\H,16.49,12.88,14.39\H,16.23,13.98,15.
 4\O,14.18,27.,18.94\H,15.08,26.81,18.7\H,13.74,26.15,18.92\O,17.46,25.
 26,26.21\H,16.98,25.19,27.04\H,16.95,25.87,25.68\O,21.96,15.29,12.09\H
 ,22.18,15.87,12.82\H,22.34,15.7,11.32\O,18.12,28.29,21.4\H,18.96,28.3,
 21.86\H,17.47,28.43,22.09\O,18.96,11.82,17.65\H,18.75,12.13,16.78\H,18
 .65,10.91,17.66\O,22.53,21.38,28.74\H,21.83,20.85,28.34\H,22.21,21.57,
 29.62\O,12.19,16.7,17.38\H,12.13,16.69,18.33\H,12.24,17.63,17.15\O,19.
 17,17.82,11.11\H,19.75,17.14,11.44\H,19.49,18.63,11.51\O,23.38,27.46,1
 5.36\H,23.04,27.11,16.18\H,24.21,27.88,15.61\O,13.15,17.37,24.54\H,12.
 85,17.41,25.45\H,13.08,16.44,24.31\O,17.43,21.78,28.22\H,16.89,22.53,2
 7.96\H,18.32,22.13,28.23\O,14.82,26.23,15.74\H,14.23,26.93,16.\H,15.67
 ,26.5,16.09\O,19.41,14.5,12.23\H,19.,15.16,12.79\H,20.33,14.77,12.19\O
 ,27.03,19.68,26.56\H,27.88,19.69,26.12\H,26.43,20.08,25.93\O,18.98,27.
 54,25.68\H,19.17,27.54,26.62\H,18.63,26.67,25.51\O,20.55,23.83,27.94\H
 ,21.42,23.46,28.04\H,20.35,24.22,28.79\O,23.33,20.45,11.12\H,23.18,20.
 29,10.18\H,22.46,20.36,11.52\O,18.,28.04,16.85\H,17.29,28.64,17.09\H,1
 8.71,28.61,16.56\O,25.39,16.57,13.83\H,25.81,16.51,12.97\H,24.96,15.72
 ,13.94\O,25.27,28.35,19.23\H,26.11,28.2,18.82\H,24.84,27.49,19.23\O,20
 .58,13.91,27.21\H,20.34,13.16,27.74\H,19.75,14.35,27.03\O,27.68,18.75,
 15.39\H,28.56,18.36,15.37\H,27.28,18.45,14.57\O,23.46,16.79,27.74\H,23
 .79,17.67,27.93\H,23.22,16.43,28.6\O,15.75,23.08,12.19\H,16.62,22.73,1
 2.04\H,15.75,23.93,11.75\O,14.7,17.06,12.74\H,15.63,17.19,12.56\H,14.5
 3,16.16,12.47\O,10.53,18.29,20.02\H,11.08,18.42,20.79\H,9.86,18.97,20.
 09\O,13.67,22.67,13.98\H,14.39,22.74,13.35\H,13.37,21.77,13.9\O,27.31,
 14.,22.41\H,27.02,14.71,23.\H,26.69,14.03,21.69\O,20.21,28.91,15.97\H,
 20.1,28.36,15.2\H,20.81,28.41,16.53\\Version=ES64L-G09RevE.01\HF=-9773
 .4292846\RMSD=1.692e-09\RMSF=1.102e-02\Dipole=2.7321207,-0.9773313,-9.
 1891751\Quadrupole=301.0971268,50.1598136,-351.2569404,-1353.0746788,-
 1769.7758575,-1816.8764325\PG=C01 [X(Br1H256O128)]\\@


 BLESSED ARE THOSE WHO NOUGHT EXPECT,
 FOR THEY SHALL NOT BE DISAPPOINTED..  WALCOT - ODE TO PITT
 Job cpu time:       5 days 18 hours 45 minutes 38.7 seconds.
 File lengths (MBytes):  RWF=   7285 Int=      0 D2E=      0 Chk=   2411 Scr=      1
 Normal termination of Gaussian 09 at Thu May 10 08:57:23 2018.
