 Entering Gaussian System, Link 0=/cm/shared/gaussian/g09.e01/intel64-sandybridge/g09/g09
 Initial command:
 /cm/shared/gaussian/g09.e01/intel64-sandybridge/g09/l1.exe "/local/scratch/m.peluso/128_wat/Gau-33640.inp" -scrdir="/local/scratch/m.peluso/128_wat/"
 Entering Link 1 = /cm/shared/gaussian/g09.e01/intel64-sandybridge/g09/l1.exe PID=     33641.
  
 Copyright (c) 1988,1990,1992,1993,1995,1998,2003,2009,2015,
            Gaussian, Inc.  All Rights Reserved.
  
 This is part of the Gaussian(R) 09 program.  It is based on
 the Gaussian(R) 03 system (copyright 2003, Gaussian, Inc.),
 the Gaussian(R) 98 system (copyright 1998, Gaussian, Inc.),
 the Gaussian(R) 94 system (copyright 1995, Gaussian, Inc.),
 the Gaussian 92(TM) system (copyright 1992, Gaussian, Inc.),
 the Gaussian 90(TM) system (copyright 1990, Gaussian, Inc.),
 the Gaussian 88(TM) system (copyright 1988, Gaussian, Inc.),
 the Gaussian 86(TM) system (copyright 1986, Carnegie Mellon
 University), and the Gaussian 82(TM) system (copyright 1983,
 Carnegie Mellon University). Gaussian is a federally registered
 trademark of Gaussian, Inc.
  
 This software contains proprietary and confidential information,
 including trade secrets, belonging to Gaussian, Inc.
  
 This software is provided under written license and may be
 used, copied, transmitted, or stored only in accord with that
 written license.
  
 The following legend is applicable only to US Government
 contracts under FAR:
  
                    RESTRICTED RIGHTS LEGEND
  
 Use, reproduction and disclosure by the US Government is
 subject to restrictions as set forth in subparagraphs (a)
 and (c) of the Commercial Computer Software - Restricted
 Rights clause in FAR 52.227-19.
  
 Gaussian, Inc.
 340 Quinnipiac St., Bldg. 40, Wallingford CT 06492
  
  
 ---------------------------------------------------------------
 Warning -- This program may not be used in any manner that
 competes with the business of Gaussian, Inc. or will provide
 assistance to any competitor of Gaussian, Inc.  The licensee
 of this program is prohibited from giving any competitor of
 Gaussian, Inc. access to this program.  By using this program,
 the user acknowledges that Gaussian, Inc. is engaged in the
 business of creating and licensing software in the field of
 computational chemistry and represents and warrants to the
 licensee that it is not a competitor of Gaussian, Inc. and that
 it will not use this program in any manner prohibited above.
 ---------------------------------------------------------------
  

 Cite this work as:
 Gaussian 09, Revision E.01,
 M. J. Frisch, G. W. Trucks, H. B. Schlegel, G. E. Scuseria, 
 M. A. Robb, J. R. Cheeseman, G. Scalmani, V. Barone, B. Mennucci, 
 G. A. Petersson, H. Nakatsuji, M. Caricato, X. Li, H. P. Hratchian, 
 A. F. Izmaylov, J. Bloino, G. Zheng, J. L. Sonnenberg, M. Hada, 
 M. Ehara, K. Toyota, R. Fukuda, J. Hasegawa, M. Ishida, T. Nakajima, 
 Y. Honda, O. Kitao, H. Nakai, T. Vreven, J. A. Montgomery, Jr., 
 J. E. Peralta, F. Ogliaro, M. Bearpark, J. J. Heyd, E. Brothers, 
 K. N. Kudin, V. N. Staroverov, T. Keith, R. Kobayashi, J. Normand, 
 K. Raghavachari, A. Rendell, J. C. Burant, S. S. Iyengar, J. Tomasi, 
 M. Cossi, N. Rega, J. M. Millam, M. Klene, J. E. Knox, J. B. Cross, 
 V. Bakken, C. Adamo, J. Jaramillo, R. Gomperts, R. E. Stratmann, 
 O. Yazyev, A. J. Austin, R. Cammi, C. Pomelli, J. W. Ochterski, 
 R. L. Martin, K. Morokuma, V. G. Zakrzewski, G. A. Voth, 
 P. Salvador, J. J. Dannenberg, S. Dapprich, A. D. Daniels, 
 O. Farkas, J. B. Foresman, J. V. Ortiz, J. Cioslowski, 
 and D. J. Fox, Gaussian, Inc., Wallingford CT, 2013.
 
 ******************************************
 Gaussian 09:  ES64L-G09RevE.01 30-Nov-2015
                 6-May-2018 
 ******************************************
 %Mem=110GB
 %NProcShared=64
 Will use up to   64 processors via shared memory.
 %chk=snap70.chk
 ----------------------------------------------
 #p PBE1PBE/cc-pvDZ force Counterpoise=2 noSymm
 ----------------------------------------------
 1/10=7,30=1,38=1,62=2/1,3;
 2/12=2,15=1,17=6,18=5,40=1/2;
 1/10=7,30=1,38=1,53=2,62=2,63=101/22;
 3/5=16,11=2,16=1,25=1,30=1,71=1,74=-13/1,2,3;
 4//1;
 5/5=2,38=5/2;
 6/7=2,8=2,9=2,10=2,28=1/1;
 7/7=1,29=1,30=1,33=-1/1,2,3,16;
 1/10=7,30=1,53=2,62=2,63=101/22;
 3/5=7,6=11,11=2,16=1,25=1,30=1,71=1,74=-13,82=7/1,2,3;
 4//1;
 5/5=2,38=5/2;
 6/7=2,8=2,9=2,10=2,28=1/1;
 7/7=1,29=1,30=1,33=-1/1,2,3,16;
 1/10=7,30=1,53=2,62=2,63=101/22(-5);
 7/9=1,29=1,44=-1/16;
 1/10=7,30=1,62=2/3;
 99//99;
 Leave Link    1 at Sun May  6 18:07:23 2018, MaxMem= 14763950080 cpu:         8.6
 (Enter /cm/shared/gaussian/g09.e01/intel64-sandybridge/g09/l101.exe)
 ---------------------------------------
 forces on chloride comput - NWATER: 128
 ---------------------------------------
 Symbolic Z-matrix:
 Charge = -1 Multiplicity = 1 in supermolecule
 Charge = -1 Multiplicity = 1 in fragment      1.
 Charge =  0 Multiplicity = 1 in fragment      2.
 Br(Fragment=1)        20.       20.       20. 
 O(Fragment=2)         17.42     21.67     18.83 
 H(Fragment=2)         17.56     22.6      18.95 
 H(Fragment=2)         18.24     21.26     19.12 
 O(Fragment=2)         19.5      16.8      20.62 
 H(Fragment=2)         19.6      17.67     20.24 
 H(Fragment=2)         19.35     16.23     19.87 
 O(Fragment=2)         22.72     18.05     20.12 
 H(Fragment=2)         21.98     18.64     19.96 
 H(Fragment=2)         22.56     17.69     20.99 
 O(Fragment=2)         19.37     23.08     21.28 
 H(Fragment=2)         19.6      22.3      20.77 
 H(Fragment=2)         19.85     22.97     22.11 
 O(Fragment=2)         18.02     19.77     22.74 
 H(Fragment=2)         18.49     20.03     21.94 
 H(Fragment=2)         17.64     18.92     22.52 
 O(Fragment=2)         19.4      19.99     16.63 
 H(Fragment=2)         19.49     19.77     17.56 
 H(Fragment=2)         19.83     20.84     16.55 
 O(Fragment=2)         16.       18.77     20.58 
 H(Fragment=2)         16.76     19.22     20.22 
 H(Fragment=2)         15.28     19.       19.99 
 O(Fragment=2)         21.37     20.04     24.05 
 H(Fragment=2)         21.09     20.31     23.18 
 H(Fragment=2)         21.03     19.15     24.15 
 O(Fragment=2)         22.22     22.97     18. 
 H(Fragment=2)         22.44     22.51     17.19 
 H(Fragment=2)         22.24     22.29     18.67 
 O(Fragment=2)         24.16     19.47     18.33 
 H(Fragment=2)         23.75     19.05     19.08 
 H(Fragment=2)         24.24     20.39     18.59 
 O(Fragment=2)         20.83     16.77     23. 
 H(Fragment=2)         20.31     16.7      22.2 
 H(Fragment=2)         20.25     16.45     23.69 
 O(Fragment=2)         18.86     24.29     18.89 
 H(Fragment=2)         19.17     23.94     19.72 
 H(Fragment=2)         18.49     25.14     19.1 
 O(Fragment=2)         22.32     18.33     16.41 
 H(Fragment=2)         22.88     17.87     15.78 
 H(Fragment=2)         22.93     18.87     16.92 
 O(Fragment=2)         20.12     23.42     16.3 
 H(Fragment=2)         19.36     23.96     16.53 
 H(Fragment=2)         20.63     23.36     17.11 
 O(Fragment=2)         22.76     24.25     21.12 
 H(Fragment=2)         23.71     24.38     21.16 
 H(Fragment=2)         22.62     23.75     20.32 
 O(Fragment=2)         19.08     17.42     15.21 
 H(Fragment=2)         19.78     16.84     15.52 
 H(Fragment=2)         19.34     18.28     15.53 
 O(Fragment=2)         17.14     22.65     24. 
 H(Fragment=2)         17.03     22.33     23.1 
 H(Fragment=2)         17.55     21.93     24.47 
 O(Fragment=2)         17.54     21.04     14.58 
 H(Fragment=2)         16.72     21.37     14.96 
 H(Fragment=2)         18.07     20.79     15.34 
 O(Fragment=2)         15.66     15.89     20.39 
 H(Fragment=2)         16.19     15.26     20.88 
 H(Fragment=2)         16.08     16.74     20.57 
 O(Fragment=2)         15.64     23.63     20.91 
 H(Fragment=2)         15.35     23.03     20.22 
 H(Fragment=2)         16.57     23.77     20.73 
 O(Fragment=2)         15.05     22.06     17.07 
 H(Fragment=2)         15.91     21.76     17.35 
 H(Fragment=2)         14.71     21.36     16.53 
 O(Fragment=2)         20.78     23.63     23.62 
 H(Fragment=2)         21.59     24.11     23.8 
 H(Fragment=2)         20.55     23.22     24.45 
 O(Fragment=2)         17.76     20.27     25.64 
 H(Fragment=2)         18.42     19.65     25.94 
 H(Fragment=2)         17.77     20.19     24.69 
 O(Fragment=2)         24.81     16.72     17.86 
 H(Fragment=2)         24.39     16.77     17. 
 H(Fragment=2)         24.4      17.43     18.37 
 O(Fragment=2)         23.8      22.22     24.43 
 H(Fragment=2)         23.3      21.58     23.92 
 H(Fragment=2)         23.29     22.34     25.23 
 O(Fragment=2)         18.08     16.09     23.93 
 H(Fragment=2)         17.41     15.44     24.13 
 H(Fragment=2)         18.35     15.89     23.03 
 O(Fragment=2)         20.78     19.74     13.77 
 H(Fragment=2)         20.89     19.53     14.7 
 H(Fragment=2)         20.42     18.94     13.38 
 O(Fragment=2)         20.29     25.74     21.71 
 H(Fragment=2)         20.01     24.95     22.18 
 H(Fragment=2)         21.23     25.61     21.57 
 O(Fragment=2)         14.94     19.31     23.37 
 H(Fragment=2)         14.4      20.03     23.07 
 H(Fragment=2)         15.33     18.95     22.57 
 O(Fragment=2)         23.57     21.54     16.15 
 H(Fragment=2)         24.46     21.19     16.1 
 H(Fragment=2)         23.42     21.95     15.3 
 O(Fragment=2)         21.77     21.49     26.16 
 H(Fragment=2)         21.42     21.31     25.29 
 H(Fragment=2)         21.55     20.71     26.68 
 O(Fragment=2)         21.86     14.32     19.21 
 H(Fragment=2)         22.32     14.85     19.85 
 H(Fragment=2)         22.5      14.19     18.5 
 O(Fragment=2)         25.35     21.77     19.54 
 H(Fragment=2)         25.69     20.97     19.94 
 H(Fragment=2)         26.13     22.26     19.28 
 O(Fragment=2)         23.44     16.34     23.65 
 H(Fragment=2)         22.49     16.32     23.54 
 H(Fragment=2)         23.57     16.77     24.5 
 O(Fragment=2)         21.87     22.66     14.06 
 H(Fragment=2)         21.35     22.02     13.58 
 H(Fragment=2)         21.48     22.69     14.93 
 O(Fragment=2)         24.15     15.24     21.17 
 H(Fragment=2)         24.37     15.89     20.51 
 H(Fragment=2)         24.11     15.73     21.99 
 O(Fragment=2)         17.83     14.76     16.13 
 H(Fragment=2)         17.8      15.71     16.29 
 H(Fragment=2)         16.92     14.51     15.99 
 O(Fragment=2)         16.51     17.22     15.07 
 H(Fragment=2)         17.46     17.3      15.08 
 H(Fragment=2)         16.31     16.9      14.19 
 O(Fragment=2)         19.36     13.64     19.88 
 H(Fragment=2)         19.62     13.4      20.77 
 H(Fragment=2)         20.2      13.79     19.43 
 O(Fragment=2)         13.95     19.07     18.68 
 H(Fragment=2)         13.93     18.88     17.74 
 H(Fragment=2)         13.28     19.74     18.8 
 O(Fragment=2)         21.17     15.75     15.31 
 H(Fragment=2)         21.36     14.97     15.83 
 H(Fragment=2)         21.98     16.26     15.34 
 O(Fragment=2)         23.9      25.85     18.08 
 H(Fragment=2)         23.22     25.21     17.87 
 H(Fragment=2)         24.7      25.33     18.14 
 O(Fragment=2)         18.81     26.81     19.74 
 H(Fragment=2)         19.21     26.97     18.88 
 H(Fragment=2)         19.55     26.62     20.32 
 O(Fragment=2)         13.82     22.81     22.58 
 H(Fragment=2)         14.4      23.2      21.93 
 H(Fragment=2)         14.05     23.24     23.4 
 O(Fragment=2)         19.89     18.72     26.79 
 H(Fragment=2)         19.56     17.83     26.71 
 H(Fragment=2)         20.84     18.62     26.86 
 O(Fragment=2)         15.38     13.98     18.27 
 H(Fragment=2)         15.27     14.14     17.33 
 H(Fragment=2)         15.55     14.85     18.63 
 O(Fragment=2)         17.14     13.88     21.64 
 H(Fragment=2)         17.32     13.24     20.95 
 H(Fragment=2)         17.84     13.75     22.28 
 O(Fragment=2)         19.22     17.72     12.51 
 H(Fragment=2)         19.05     17.96     13.42 
 H(Fragment=2)         18.37     17.79     12.08 
 O(Fragment=2)         18.59     16.33     26.53 
 H(Fragment=2)         17.69     16.55     26.77 
 H(Fragment=2)         18.54     16.09     25.61 
 O(Fragment=2)         26.97     19.41     20.25 
 H(Fragment=2)         27.36     18.82     19.61 
 H(Fragment=2)         27.36     19.16     21.09 
 O(Fragment=2)         13.94     16.62     23.63 
 H(Fragment=2)         14.34     15.97     24.21 
 H(Fragment=2)         14.59     17.32     23.57 
 O(Fragment=2)         17.25     25.18     25.07 
 H(Fragment=2)         17.62     25.5      24.25 
 H(Fragment=2)         17.11     24.25     24.93 
 O(Fragment=2)         24.14     14.04     17.57 
 H(Fragment=2)         24.5      14.91     17.75 
 H(Fragment=2)         24.34     13.88     16.65 
 O(Fragment=2)         13.91     17.74     16.01 
 H(Fragment=2)         14.76     17.3      15.91 
 H(Fragment=2)         14.03     18.58     15.57 
 O(Fragment=2)         15.26     19.05     26.19 
 H(Fragment=2)         16.01     19.65     26.2 
 H(Fragment=2)         15.01     18.99     25.27 
 O(Fragment=2)         24.08     16.75     14.83 
 H(Fragment=2)         24.14     15.81     14.68 
 H(Fragment=2)         24.81     17.12     14.34 
 O(Fragment=2)         26.58     22.55     16.69 
 H(Fragment=2)         27.1      22.11     16.01 
 H(Fragment=2)         25.75     22.75     16.26 
 O(Fragment=2)         26.96     22.36     23.57 
 H(Fragment=2)         27.01     23.15     23.04 
 H(Fragment=2)         26.02     22.24     23.73 
 O(Fragment=2)         17.81     26.85     22.87 
 H(Fragment=2)         16.89     26.71     22.63 
 H(Fragment=2)         18.26     26.96     22.03 
 O(Fragment=2)         24.86     20.59     26.27 
 H(Fragment=2)         24.81     20.97     27.15 
 H(Fragment=2)         24.66     21.31     25.68 
 O(Fragment=2)         19.5      22.02     12.2 
 H(Fragment=2)         20.27     21.82     11.67 
 H(Fragment=2)         19.29     21.2      12.65 
 O(Fragment=2)         27.26     16.61     22.46 
 H(Fragment=2)         26.43     16.7      21.99 
 H(Fragment=2)         27.68     15.84     22.07 
 O(Fragment=2)         14.78     26.1      18.1 
 H(Fragment=2)         14.88     25.42     18.77 
 H(Fragment=2)         14.15     25.73     17.48 
 O(Fragment=2)         27.43     18.48     16.3 
 H(Fragment=2)         26.81     18.51     17.03 
 H(Fragment=2)         28.29     18.37     16.72 
 O(Fragment=2)         18.99     13.24     23.43 
 H(Fragment=2)         19.89     13.38     23.71 
 H(Fragment=2)         18.63     12.63     24.07 
 O(Fragment=2)         18.45     12.38     17.42 
 H(Fragment=2)         18.27     13.23     17.03 
 H(Fragment=2)         18.6      12.56     18.35 
 O(Fragment=2)         22.63     18.83     27.07 
 H(Fragment=2)         23.27     19.51     26.86 
 H(Fragment=2)         22.62     18.79     28.02 
 O(Fragment=2)         24.35     25.73     22.76 
 H(Fragment=2)         23.86     26.54     22.64 
 H(Fragment=2)         24.04     25.38     23.6 
 O(Fragment=2)         22.67     25.27     24.86 
 H(Fragment=2)         21.98     25.87     25.14 
 H(Fragment=2)         23.12     25.02     25.67 
 O(Fragment=2)         15.11     26.81     21.57 
 H(Fragment=2)         14.53     27.13     20.87 
 H(Fragment=2)         15.31     25.91     21.31 
 O(Fragment=2)         20.18     26.52     15.19 
 H(Fragment=2)         20.51     27.14     14.55 
 H(Fragment=2)         20.23     25.67     14.76 
 O(Fragment=2)         12.66     15.56     20.93 
 H(Fragment=2)         13.58     15.81     20.95 
 H(Fragment=2)         12.42     15.45     21.85 
 O(Fragment=2)         28.39     21.62     19.29 
 H(Fragment=2)         28.41     22.03     18.43 
 H(Fragment=2)         27.68     20.98     19.24 
 O(Fragment=2)         27.49     16.82     18.79 
 H(Fragment=2)         26.73     16.45     18.34 
 H(Fragment=2)         28.       16.06     19.07 
 O(Fragment=2)         19.41     14.38     13.49 
 H(Fragment=2)         18.62     14.23     14.01 
 H(Fragment=2)         19.95     14.96     14.03 
 O(Fragment=2)         13.04     23.91     19.65 
 H(Fragment=2)         12.87     23.19     20.26 
 H(Fragment=2)         12.75     23.58     18.8 
 O(Fragment=2)         24.39     17.08     26.21 
 H(Fragment=2)         25.27     17.42     26.09 
 H(Fragment=2)         23.87     17.84     26.48 
 O(Fragment=2)         12.17     20.33     22.65 
 H(Fragment=2)         12.62     21.17     22.76 
 H(Fragment=2)         11.67     20.23     23.46 
 O(Fragment=2)         23.55     25.96     14.9 
 H(Fragment=2)         24.35     26.38     15.22 
 H(Fragment=2)         22.94     26.       15.64 
 O(Fragment=2)         24.67     12.81     22.15 
 H(Fragment=2)         25.43     13.2      22.57 
 H(Fragment=2)         24.37     13.48     21.53 
 O(Fragment=2)         25.22     14.39     24.5 
 H(Fragment=2)         25.89     15.06     24.59 
 H(Fragment=2)         24.4      14.88     24.42 
 O(Fragment=2)         20.98     24.99     13.03 
 H(Fragment=2)         20.84     24.05     13.05 
 H(Fragment=2)         21.73     25.14     13.61 
 O(Fragment=2)         20.12     27.96     17.5 
 H(Fragment=2)         20.06     27.41     16.71 
 H(Fragment=2)         21.06     28.11     17.6 
 O(Fragment=2)         12.79     24.15     16.74 
 H(Fragment=2)         13.56     23.6      16.62 
 H(Fragment=2)         12.06     23.62     16.41 
 O(Fragment=2)         18.8      23.11     27.47 
 H(Fragment=2)         19.65     23.01     27.89 
 H(Fragment=2)         18.68     24.05     27.4 
 O(Fragment=2)         17.09     27.53     17.51 
 H(Fragment=2)         16.34     26.97     17.73 
 H(Fragment=2)         17.41     27.85     18.35 
 O(Fragment=2)         28.21     20.09     22.51 
 H(Fragment=2)         28.25     19.81     23.42 
 H(Fragment=2)         27.74     20.92     22.53 
 O(Fragment=2)         26.88     24.74     22.41 
 H(Fragment=2)         25.99     25.09     22.35 
 H(Fragment=2)         27.4      25.33     21.87 
 O(Fragment=2)         16.22     14.26     24.59 
 H(Fragment=2)         16.09     13.35     24.33 
 H(Fragment=2)         15.7      14.36     25.39 
 O(Fragment=2)         11.5      21.81     20.62 
 H(Fragment=2)         10.65     21.99     21.03 
 H(Fragment=2)         11.9      21.15     21.18 
 O(Fragment=2)         13.73     20.41     14.6 
 H(Fragment=2)         13.58     21.32     14.37 
 H(Fragment=2)         13.09     19.92     14.08 
 O(Fragment=2)         24.6      27.79     20.01 
 H(Fragment=2)         25.37     27.46     20.47 
 H(Fragment=2)         24.32     27.07     19.45 
 O(Fragment=2)         26.69     24.69     18.45 
 H(Fragment=2)         27.51     24.92     18.89 
 H(Fragment=2)         26.97     24.28     17.63 
 O(Fragment=2)         11.92     20.65     18.06 
 H(Fragment=2)         11.52     21.22     17.4 
 H(Fragment=2)         11.59     20.99     18.9 
 O(Fragment=2)         21.39     28.48     22.41 
 H(Fragment=2)         20.69     27.93     22.77 
 H(Fragment=2)         20.93     29.16     21.93 
 O(Fragment=2)         20.98     12.84     15.09 
 H(Fragment=2)         20.91     11.97     14.7 
 H(Fragment=2)         20.15     13.26     14.88 
 O(Fragment=2)         18.95     19.72     29.31 
 H(Fragment=2)         18.26     19.07     29.45 
 H(Fragment=2)         19.34     19.48     28.46 
 O(Fragment=2)         21.3      22.97     28.42 
 H(Fragment=2)         21.84     22.29     28. 
 H(Fragment=2)         21.63     23.79     28.06 
 O(Fragment=2)         13.89     13.13     20.7 
 H(Fragment=2)         14.62     13.34     20.12 
 H(Fragment=2)         13.44     13.97     20.83 
 O(Fragment=2)         16.17     16.88     27.45 
 H(Fragment=2)         16.39     17.1      28.36 
 H(Fragment=2)         15.75     17.67     27.11 
 O(Fragment=2)         26.09     13.17     19.03 
 H(Fragment=2)         26.57     12.76     18.31 
 H(Fragment=2)         25.19     13.25     18.71 
 O(Fragment=2)         24.84     24.11     13.28 
 H(Fragment=2)         25.4      24.88     13.26 
 H(Fragment=2)         24.06     24.39     13.75 
 O(Fragment=2)         16.22     21.33     28.19 
 H(Fragment=2)         17.14     21.55     28.04 
 H(Fragment=2)         16.24     20.44     28.54 
 O(Fragment=2)         26.32     18.09     13.92 
 H(Fragment=2)         26.61     18.83     13.38 
 H(Fragment=2)         26.75     18.22     14.76 
 O(Fragment=2)         26.04     21.71     13.71 
 H(Fragment=2)         25.64     22.57     13.75 
 H(Fragment=2)         25.97     21.44     12.8 
 O(Fragment=2)         16.81     18.67     11.64 
 H(Fragment=2)         16.25     19.38     11.95 
 H(Fragment=2)         16.39     18.36     10.84 
 O(Fragment=2)         22.03     12.22     23.85 
 H(Fragment=2)         22.95     12.47     23.73 
 H(Fragment=2)         21.8      11.78     23.03 
 O(Fragment=2)         19.32     28.74     24.42 
 H(Fragment=2)         19.04     27.84     24.28 
 H(Fragment=2)         18.89     29.24     23.73 
 O(Fragment=2)         17.6      28.02     15. 
 H(Fragment=2)         18.28     27.36     15.14 
 H(Fragment=2)         17.18     28.11     15.85 
 O(Fragment=2)         16.69     22.38     11.3 
 H(Fragment=2)         16.2      22.83     11.98 
 H(Fragment=2)         17.57     22.3      11.65 
 O(Fragment=2)         14.8      14.21     15.44 
 H(Fragment=2)         13.9      14.51     15.44 
 H(Fragment=2)         14.9      13.73     14.62 
 O(Fragment=2)         21.18     17.76     10.59 
 H(Fragment=2)         20.82     17.26     9.86 
 H(Fragment=2)         20.48     17.75     11.25 
 O(Fragment=2)         19.84     15.69     28.8 
 H(Fragment=2)         19.45     15.65     27.92 
 H(Fragment=2)         20.78     15.67     28.64 
 O(Fragment=2)         22.35     14.46     12.27 
 H(Fragment=2)         21.6      14.85     12.71 
 H(Fragment=2)         23.06     14.52     12.9 
 O(Fragment=2)         23.82     13.8      14.59 
 H(Fragment=2)         24.33     13.48     13.85 
 H(Fragment=2)         23.01     13.28     14.56 
 O(Fragment=2)         12.44     15.32     15.85 
 H(Fragment=2)         11.52     15.44     15.64 
 H(Fragment=2)         12.76     16.2      16.07 
 O(Fragment=2)         26.75     18.75     25.95 
 H(Fragment=2)         27.71     18.74     25.91 
 H(Fragment=2)         26.54     19.56     26.41 
 O(Fragment=2)         14.45     23.36     26.95 
 H(Fragment=2)         14.83     22.49     27.1 
 H(Fragment=2)         14.15     23.64     27.81 
 O(Fragment=2)         28.26     20.92     15.22 
 H(Fragment=2)         28.09     20.1      15.67 
 H(Fragment=2)         27.53     21.       14.59 
 O(Fragment=2)         15.29     23.85     12.82 
 H(Fragment=2)         15.3      24.8      12.68 
 H(Fragment=2)         14.63     23.72     13.5 
 O(Fragment=2)         11.61     25.39     21.49 
 H(Fragment=2)         12.04     25.51     22.33 
 H(Fragment=2)         12.23     24.87     20.97 
 O(Fragment=2)         10.51     17.84     20.64 
 H(Fragment=2)         11.19     17.19     20.52 
 H(Fragment=2)         10.3      18.14     19.75 
 O(Fragment=2)         18.9      24.68     11.2 
 H(Fragment=2)         19.51     25.23     11.69 
 H(Fragment=2)         18.95     23.82     11.62 
 O(Fragment=2)         15.62     16.29     12.72 
 H(Fragment=2)         15.9      16.99     12.13 
 H(Fragment=2)         14.66     16.34     12.72 
 O(Fragment=2)         16.15     25.57     27.47 
 H(Fragment=2)         16.35     25.54     26.54 
 H(Fragment=2)         15.79     24.7      27.67 
 O(Fragment=2)         17.88     15.23     11.45 
 H(Fragment=2)         18.78     15.06     11.73 
 H(Fragment=2)         17.43     15.53     12.24 
 O(Fragment=2)         27.7      14.24     20.96 
 H(Fragment=2)         27.1      13.97     20.27 
 H(Fragment=2)         28.39     13.57     20.95 
 O(Fragment=2)         15.23     10.98     18.88 
 H(Fragment=2)         14.36     11.08     18.5 
 H(Fragment=2)         15.57     11.87     18.91 
 
 NAtoms=    385 NQM=      385 NQMF=       0 NMMI=      0 NMMIF=      0
                NMic=       0 NMicF=      0.
                    Isotopes and Nuclear Properties:
 (Nuclear quadrupole moments (NQMom) in fm**2, nuclear magnetic moments (NMagM)
  in nuclear magnetons)

  Atom         1           2           3           4           5           6           7           8           9          10
 IAtWgt=          79          16           1           1          16           1           1          16           1           1
 AtmWgt=  78.9183361  15.9949146   1.0078250   1.0078250  15.9949146   1.0078250   1.0078250  15.9949146   1.0078250   1.0078250
 NucSpn=           3           0           1           1           0           1           1           0           1           1
 AtZEff=   0.0000000   0.0000000   0.0000000   0.0000000   0.0000000   0.0000000   0.0000000   0.0000000   0.0000000   0.0000000
 NQMom=   31.3000000   0.0000000   0.0000000   0.0000000   0.0000000   0.0000000   0.0000000   0.0000000   0.0000000   0.0000000
 NMagM=    2.1063990   0.0000000   2.7928460   2.7928460   0.0000000   2.7928460   2.7928460   0.0000000   2.7928460   2.7928460
 AtZNuc=  35.0000000   8.0000000   1.0000000   1.0000000   8.0000000   1.0000000   1.0000000   8.0000000   1.0000000   1.0000000

  Atom        11          12          13          14          15          16          17          18          19          20
 IAtWgt=          16           1           1          16           1           1          16           1           1          16
 AtmWgt=  15.9949146   1.0078250   1.0078250  15.9949146   1.0078250   1.0078250  15.9949146   1.0078250   1.0078250  15.9949146
 NucSpn=           0           1           1           0           1           1           0           1           1           0
 AtZEff=   0.0000000   0.0000000   0.0000000   0.0000000   0.0000000   0.0000000   0.0000000   0.0000000   0.0000000   0.0000000
 NQMom=    0.0000000   0.0000000   0.0000000   0.0000000   0.0000000   0.0000000   0.0000000   0.0000000   0.0000000   0.0000000
 NMagM=    0.0000000   2.7928460   2.7928460   0.0000000   2.7928460   2.7928460   0.0000000   2.7928460   2.7928460   0.0000000
 AtZNuc=   8.0000000   1.0000000   1.0000000   8.0000000   1.0000000   1.0000000   8.0000000   1.0000000   1.0000000   8.0000000

  Atom        21          22          23          24          25          26          27          28          29          30
 IAtWgt=           1           1          16           1           1          16           1           1          16           1
 AtmWgt=   1.0078250   1.0078250  15.9949146   1.0078250   1.0078250  15.9949146   1.0078250   1.0078250  15.9949146   1.0078250
 NucSpn=           1           1           0           1           1           0           1           1           0           1
 AtZEff=   0.0000000   0.0000000   0.0000000   0.0000000   0.0000000   0.0000000   0.0000000   0.0000000   0.0000000   0.0000000
 NQMom=    0.0000000   0.0000000   0.0000000   0.0000000   0.0000000   0.0000000   0.0000000   0.0000000   0.0000000   0.0000000
 NMagM=    2.7928460   2.7928460   0.0000000   2.7928460   2.7928460   0.0000000   2.7928460   2.7928460   0.0000000   2.7928460
 AtZNuc=   1.0000000   1.0000000   8.0000000   1.0000000   1.0000000   8.0000000   1.0000000   1.0000000   8.0000000   1.0000000

  Atom        31          32          33          34          35          36          37          38          39          40
 IAtWgt=           1          16           1           1          16           1           1          16           1           1
 AtmWgt=   1.0078250  15.9949146   1.0078250   1.0078250  15.9949146   1.0078250   1.0078250  15.9949146   1.0078250   1.0078250
 NucSpn=           1           0           1           1           0           1           1           0           1           1
 AtZEff=   0.0000000   0.0000000   0.0000000   0.0000000   0.0000000   0.0000000   0.0000000   0.0000000   0.0000000   0.0000000
 NQMom=    0.0000000   0.0000000   0.0000000   0.0000000   0.0000000   0.0000000   0.0000000   0.0000000   0.0000000   0.0000000
 NMagM=    2.7928460   0.0000000   2.7928460   2.7928460   0.0000000   2.7928460   2.7928460   0.0000000   2.7928460   2.7928460
 AtZNuc=   1.0000000   8.0000000   1.0000000   1.0000000   8.0000000   1.0000000   1.0000000   8.0000000   1.0000000   1.0000000

  Atom        41          42          43          44          45          46          47          48          49          50
 IAtWgt=          16           1           1          16           1           1          16           1           1          16
 AtmWgt=  15.9949146   1.0078250   1.0078250  15.9949146   1.0078250   1.0078250  15.9949146   1.0078250   1.0078250  15.9949146
 NucSpn=           0           1           1           0           1           1           0           1           1           0
 AtZEff=   0.0000000   0.0000000   0.0000000   0.0000000   0.0000000   0.0000000   0.0000000   0.0000000   0.0000000   0.0000000
 NQMom=    0.0000000   0.0000000   0.0000000   0.0000000   0.0000000   0.0000000   0.0000000   0.0000000   0.0000000   0.0000000
 NMagM=    0.0000000   2.7928460   2.7928460   0.0000000   2.7928460   2.7928460   0.0000000   2.7928460   2.7928460   0.0000000
 AtZNuc=   8.0000000   1.0000000   1.0000000   8.0000000   1.0000000   1.0000000   8.0000000   1.0000000   1.0000000   8.0000000

  Atom        51          52          53          54          55          56          57          58          59          60
 IAtWgt=           1           1          16           1           1          16           1           1          16           1
 AtmWgt=   1.0078250   1.0078250  15.9949146   1.0078250   1.0078250  15.9949146   1.0078250   1.0078250  15.9949146   1.0078250
 NucSpn=           1           1           0           1           1           0           1           1           0           1
 AtZEff=   0.0000000   0.0000000   0.0000000   0.0000000   0.0000000   0.0000000   0.0000000   0.0000000   0.0000000   0.0000000
 NQMom=    0.0000000   0.0000000   0.0000000   0.0000000   0.0000000   0.0000000   0.0000000   0.0000000   0.0000000   0.0000000
 NMagM=    2.7928460   2.7928460   0.0000000   2.7928460   2.7928460   0.0000000   2.7928460   2.7928460   0.0000000   2.7928460
 AtZNuc=   1.0000000   1.0000000   8.0000000   1.0000000   1.0000000   8.0000000   1.0000000   1.0000000   8.0000000   1.0000000

  Atom        61          62          63          64          65          66          67          68          69          70
 IAtWgt=           1          16           1           1          16           1           1          16           1           1
 AtmWgt=   1.0078250  15.9949146   1.0078250   1.0078250  15.9949146   1.0078250   1.0078250  15.9949146   1.0078250   1.0078250
 NucSpn=           1           0           1           1           0           1           1           0           1           1
 AtZEff=   0.0000000   0.0000000   0.0000000   0.0000000   0.0000000   0.0000000   0.0000000   0.0000000   0.0000000   0.0000000
 NQMom=    0.0000000   0.0000000   0.0000000   0.0000000   0.0000000   0.0000000   0.0000000   0.0000000   0.0000000   0.0000000
 NMagM=    2.7928460   0.0000000   2.7928460   2.7928460   0.0000000   2.7928460   2.7928460   0.0000000   2.7928460   2.7928460
 AtZNuc=   1.0000000   8.0000000   1.0000000   1.0000000   8.0000000   1.0000000   1.0000000   8.0000000   1.0000000   1.0000000

  Atom        71          72          73          74          75          76          77          78          79          80
 IAtWgt=          16           1           1          16           1           1          16           1           1          16
 AtmWgt=  15.9949146   1.0078250   1.0078250  15.9949146   1.0078250   1.0078250  15.9949146   1.0078250   1.0078250  15.9949146
 NucSpn=           0           1           1           0           1           1           0           1           1           0
 AtZEff=   0.0000000   0.0000000   0.0000000   0.0000000   0.0000000   0.0000000   0.0000000   0.0000000   0.0000000   0.0000000
 NQMom=    0.0000000   0.0000000   0.0000000   0.0000000   0.0000000   0.0000000   0.0000000   0.0000000   0.0000000   0.0000000
 NMagM=    0.0000000   2.7928460   2.7928460   0.0000000   2.7928460   2.7928460   0.0000000   2.7928460   2.7928460   0.0000000
 AtZNuc=   8.0000000   1.0000000   1.0000000   8.0000000   1.0000000   1.0000000   8.0000000   1.0000000   1.0000000   8.0000000

  Atom        81          82          83          84          85          86          87          88          89          90
 IAtWgt=           1           1          16           1           1          16           1           1          16           1
 AtmWgt=   1.0078250   1.0078250  15.9949146   1.0078250   1.0078250  15.9949146   1.0078250   1.0078250  15.9949146   1.0078250
 NucSpn=           1           1           0           1           1           0           1           1           0           1
 AtZEff=   0.0000000   0.0000000   0.0000000   0.0000000   0.0000000   0.0000000   0.0000000   0.0000000   0.0000000   0.0000000
 NQMom=    0.0000000   0.0000000   0.0000000   0.0000000   0.0000000   0.0000000   0.0000000   0.0000000   0.0000000   0.0000000
 NMagM=    2.7928460   2.7928460   0.0000000   2.7928460   2.7928460   0.0000000   2.7928460   2.7928460   0.0000000   2.7928460
 AtZNuc=   1.0000000   1.0000000   8.0000000   1.0000000   1.0000000   8.0000000   1.0000000   1.0000000   8.0000000   1.0000000

  Atom        91          92          93          94          95          96          97          98          99         100
 IAtWgt=           1          16           1           1          16           1           1          16           1           1
 AtmWgt=   1.0078250  15.9949146   1.0078250   1.0078250  15.9949146   1.0078250   1.0078250  15.9949146   1.0078250   1.0078250
 NucSpn=           1           0           1           1           0           1           1           0           1           1
 AtZEff=   0.0000000   0.0000000   0.0000000   0.0000000   0.0000000   0.0000000   0.0000000   0.0000000   0.0000000   0.0000000
 NQMom=    0.0000000   0.0000000   0.0000000   0.0000000   0.0000000   0.0000000   0.0000000   0.0000000   0.0000000   0.0000000
 NMagM=    2.7928460   0.0000000   2.7928460   2.7928460   0.0000000   2.7928460   2.7928460   0.0000000   2.7928460   2.7928460
 AtZNuc=   1.0000000   8.0000000   1.0000000   1.0000000   8.0000000   1.0000000   1.0000000   8.0000000   1.0000000   1.0000000

  Atom       101         102         103         104         105         106         107         108         109         110
 IAtWgt=          16           1           1          16           1           1          16           1           1          16
 AtmWgt=  15.9949146   1.0078250   1.0078250  15.9949146   1.0078250   1.0078250  15.9949146   1.0078250   1.0078250  15.9949146
 NucSpn=           0           1           1           0           1           1           0           1           1           0
 AtZEff=   0.0000000   0.0000000   0.0000000   0.0000000   0.0000000   0.0000000   0.0000000   0.0000000   0.0000000   0.0000000
 NQMom=    0.0000000   0.0000000   0.0000000   0.0000000   0.0000000   0.0000000   0.0000000   0.0000000   0.0000000   0.0000000
 NMagM=    0.0000000   2.7928460   2.7928460   0.0000000   2.7928460   2.7928460   0.0000000   2.7928460   2.7928460   0.0000000
 AtZNuc=   8.0000000   1.0000000   1.0000000   8.0000000   1.0000000   1.0000000   8.0000000   1.0000000   1.0000000   8.0000000

  Atom       111         112         113         114         115         116         117         118         119         120
 IAtWgt=           1           1          16           1           1          16           1           1          16           1
 AtmWgt=   1.0078250   1.0078250  15.9949146   1.0078250   1.0078250  15.9949146   1.0078250   1.0078250  15.9949146   1.0078250
 NucSpn=           1           1           0           1           1           0           1           1           0           1
 AtZEff=   0.0000000   0.0000000   0.0000000   0.0000000   0.0000000   0.0000000   0.0000000   0.0000000   0.0000000   0.0000000
 NQMom=    0.0000000   0.0000000   0.0000000   0.0000000   0.0000000   0.0000000   0.0000000   0.0000000   0.0000000   0.0000000
 NMagM=    2.7928460   2.7928460   0.0000000   2.7928460   2.7928460   0.0000000   2.7928460   2.7928460   0.0000000   2.7928460
 AtZNuc=   1.0000000   1.0000000   8.0000000   1.0000000   1.0000000   8.0000000   1.0000000   1.0000000   8.0000000   1.0000000

  Atom       121         122         123         124         125         126         127         128         129         130
 IAtWgt=           1          16           1           1          16           1           1          16           1           1
 AtmWgt=   1.0078250  15.9949146   1.0078250   1.0078250  15.9949146   1.0078250   1.0078250  15.9949146   1.0078250   1.0078250
 NucSpn=           1           0           1           1           0           1           1           0           1           1
 AtZEff=   0.0000000   0.0000000   0.0000000   0.0000000   0.0000000   0.0000000   0.0000000   0.0000000   0.0000000   0.0000000
 NQMom=    0.0000000   0.0000000   0.0000000   0.0000000   0.0000000   0.0000000   0.0000000   0.0000000   0.0000000   0.0000000
 NMagM=    2.7928460   0.0000000   2.7928460   2.7928460   0.0000000   2.7928460   2.7928460   0.0000000   2.7928460   2.7928460
 AtZNuc=   1.0000000   8.0000000   1.0000000   1.0000000   8.0000000   1.0000000   1.0000000   8.0000000   1.0000000   1.0000000

  Atom       131         132         133         134         135         136         137         138         139         140
 IAtWgt=          16           1           1          16           1           1          16           1           1          16
 AtmWgt=  15.9949146   1.0078250   1.0078250  15.9949146   1.0078250   1.0078250  15.9949146   1.0078250   1.0078250  15.9949146
 NucSpn=           0           1           1           0           1           1           0           1           1           0
 AtZEff=   0.0000000   0.0000000   0.0000000   0.0000000   0.0000000   0.0000000   0.0000000   0.0000000   0.0000000   0.0000000
 NQMom=    0.0000000   0.0000000   0.0000000   0.0000000   0.0000000   0.0000000   0.0000000   0.0000000   0.0000000   0.0000000
 NMagM=    0.0000000   2.7928460   2.7928460   0.0000000   2.7928460   2.7928460   0.0000000   2.7928460   2.7928460   0.0000000
 AtZNuc=   8.0000000   1.0000000   1.0000000   8.0000000   1.0000000   1.0000000   8.0000000   1.0000000   1.0000000   8.0000000

  Atom       141         142         143         144         145         146         147         148         149         150
 IAtWgt=           1           1          16           1           1          16           1           1          16           1
 AtmWgt=   1.0078250   1.0078250  15.9949146   1.0078250   1.0078250  15.9949146   1.0078250   1.0078250  15.9949146   1.0078250
 NucSpn=           1           1           0           1           1           0           1           1           0           1
 AtZEff=   0.0000000   0.0000000   0.0000000   0.0000000   0.0000000   0.0000000   0.0000000   0.0000000   0.0000000   0.0000000
 NQMom=    0.0000000   0.0000000   0.0000000   0.0000000   0.0000000   0.0000000   0.0000000   0.0000000   0.0000000   0.0000000
 NMagM=    2.7928460   2.7928460   0.0000000   2.7928460   2.7928460   0.0000000   2.7928460   2.7928460   0.0000000   2.7928460
 AtZNuc=   1.0000000   1.0000000   8.0000000   1.0000000   1.0000000   8.0000000   1.0000000   1.0000000   8.0000000   1.0000000

  Atom       151         152         153         154         155         156         157         158         159         160
 IAtWgt=           1          16           1           1          16           1           1          16           1           1
 AtmWgt=   1.0078250  15.9949146   1.0078250   1.0078250  15.9949146   1.0078250   1.0078250  15.9949146   1.0078250   1.0078250
 NucSpn=           1           0           1           1           0           1           1           0           1           1
 AtZEff=   0.0000000   0.0000000   0.0000000   0.0000000   0.0000000   0.0000000   0.0000000   0.0000000   0.0000000   0.0000000
 NQMom=    0.0000000   0.0000000   0.0000000   0.0000000   0.0000000   0.0000000   0.0000000   0.0000000   0.0000000   0.0000000
 NMagM=    2.7928460   0.0000000   2.7928460   2.7928460   0.0000000   2.7928460   2.7928460   0.0000000   2.7928460   2.7928460
 AtZNuc=   1.0000000   8.0000000   1.0000000   1.0000000   8.0000000   1.0000000   1.0000000   8.0000000   1.0000000   1.0000000

  Atom       161         162         163         164         165         166         167         168         169         170
 IAtWgt=          16           1           1          16           1           1          16           1           1          16
 AtmWgt=  15.9949146   1.0078250   1.0078250  15.9949146   1.0078250   1.0078250  15.9949146   1.0078250   1.0078250  15.9949146
 NucSpn=           0           1           1           0           1           1           0           1           1           0
 AtZEff=   0.0000000   0.0000000   0.0000000   0.0000000   0.0000000   0.0000000   0.0000000   0.0000000   0.0000000   0.0000000
 NQMom=    0.0000000   0.0000000   0.0000000   0.0000000   0.0000000   0.0000000   0.0000000   0.0000000   0.0000000   0.0000000
 NMagM=    0.0000000   2.7928460   2.7928460   0.0000000   2.7928460   2.7928460   0.0000000   2.7928460   2.7928460   0.0000000
 AtZNuc=   8.0000000   1.0000000   1.0000000   8.0000000   1.0000000   1.0000000   8.0000000   1.0000000   1.0000000   8.0000000

  Atom       171         172         173         174         175         176         177         178         179         180
 IAtWgt=           1           1          16           1           1          16           1           1          16           1
 AtmWgt=   1.0078250   1.0078250  15.9949146   1.0078250   1.0078250  15.9949146   1.0078250   1.0078250  15.9949146   1.0078250
 NucSpn=           1           1           0           1           1           0           1           1           0           1
 AtZEff=   0.0000000   0.0000000   0.0000000   0.0000000   0.0000000   0.0000000   0.0000000   0.0000000   0.0000000   0.0000000
 NQMom=    0.0000000   0.0000000   0.0000000   0.0000000   0.0000000   0.0000000   0.0000000   0.0000000   0.0000000   0.0000000
 NMagM=    2.7928460   2.7928460   0.0000000   2.7928460   2.7928460   0.0000000   2.7928460   2.7928460   0.0000000   2.7928460
 AtZNuc=   1.0000000   1.0000000   8.0000000   1.0000000   1.0000000   8.0000000   1.0000000   1.0000000   8.0000000   1.0000000

  Atom       181         182         183         184         185         186         187         188         189         190
 IAtWgt=           1          16           1           1          16           1           1          16           1           1
 AtmWgt=   1.0078250  15.9949146   1.0078250   1.0078250  15.9949146   1.0078250   1.0078250  15.9949146   1.0078250   1.0078250
 NucSpn=           1           0           1           1           0           1           1           0           1           1
 AtZEff=   0.0000000   0.0000000   0.0000000   0.0000000   0.0000000   0.0000000   0.0000000   0.0000000   0.0000000   0.0000000
 NQMom=    0.0000000   0.0000000   0.0000000   0.0000000   0.0000000   0.0000000   0.0000000   0.0000000   0.0000000   0.0000000
 NMagM=    2.7928460   0.0000000   2.7928460   2.7928460   0.0000000   2.7928460   2.7928460   0.0000000   2.7928460   2.7928460
 AtZNuc=   1.0000000   8.0000000   1.0000000   1.0000000   8.0000000   1.0000000   1.0000000   8.0000000   1.0000000   1.0000000

  Atom       191         192         193         194         195         196         197         198         199         200
 IAtWgt=          16           1           1          16           1           1          16           1           1          16
 AtmWgt=  15.9949146   1.0078250   1.0078250  15.9949146   1.0078250   1.0078250  15.9949146   1.0078250   1.0078250  15.9949146
 NucSpn=           0           1           1           0           1           1           0           1           1           0
 AtZEff=   0.0000000   0.0000000   0.0000000   0.0000000   0.0000000   0.0000000   0.0000000   0.0000000   0.0000000   0.0000000
 NQMom=    0.0000000   0.0000000   0.0000000   0.0000000   0.0000000   0.0000000   0.0000000   0.0000000   0.0000000   0.0000000
 NMagM=    0.0000000   2.7928460   2.7928460   0.0000000   2.7928460   2.7928460   0.0000000   2.7928460   2.7928460   0.0000000
 AtZNuc=   8.0000000   1.0000000   1.0000000   8.0000000   1.0000000   1.0000000   8.0000000   1.0000000   1.0000000   8.0000000

  Atom       201         202         203         204         205         206         207         208         209         210
 IAtWgt=           1           1          16           1           1          16           1           1          16           1
 AtmWgt=   1.0078250   1.0078250  15.9949146   1.0078250   1.0078250  15.9949146   1.0078250   1.0078250  15.9949146   1.0078250
 NucSpn=           1           1           0           1           1           0           1           1           0           1
 AtZEff=   0.0000000   0.0000000   0.0000000   0.0000000   0.0000000   0.0000000   0.0000000   0.0000000   0.0000000   0.0000000
 NQMom=    0.0000000   0.0000000   0.0000000   0.0000000   0.0000000   0.0000000   0.0000000   0.0000000   0.0000000   0.0000000
 NMagM=    2.7928460   2.7928460   0.0000000   2.7928460   2.7928460   0.0000000   2.7928460   2.7928460   0.0000000   2.7928460
 AtZNuc=   1.0000000   1.0000000   8.0000000   1.0000000   1.0000000   8.0000000   1.0000000   1.0000000   8.0000000   1.0000000

  Atom       211         212         213         214         215         216         217         218         219         220
 IAtWgt=           1          16           1           1          16           1           1          16           1           1
 AtmWgt=   1.0078250  15.9949146   1.0078250   1.0078250  15.9949146   1.0078250   1.0078250  15.9949146   1.0078250   1.0078250
 NucSpn=           1           0           1           1           0           1           1           0           1           1
 AtZEff=   0.0000000   0.0000000   0.0000000   0.0000000   0.0000000   0.0000000   0.0000000   0.0000000   0.0000000   0.0000000
 NQMom=    0.0000000   0.0000000   0.0000000   0.0000000   0.0000000   0.0000000   0.0000000   0.0000000   0.0000000   0.0000000
 NMagM=    2.7928460   0.0000000   2.7928460   2.7928460   0.0000000   2.7928460   2.7928460   0.0000000   2.7928460   2.7928460
 AtZNuc=   1.0000000   8.0000000   1.0000000   1.0000000   8.0000000   1.0000000   1.0000000   8.0000000   1.0000000   1.0000000

  Atom       221         222         223         224         225         226         227         228         229         230
 IAtWgt=          16           1           1          16           1           1          16           1           1          16
 AtmWgt=  15.9949146   1.0078250   1.0078250  15.9949146   1.0078250   1.0078250  15.9949146   1.0078250   1.0078250  15.9949146
 NucSpn=           0           1           1           0           1           1           0           1           1           0
 AtZEff=   0.0000000   0.0000000   0.0000000   0.0000000   0.0000000   0.0000000   0.0000000   0.0000000   0.0000000   0.0000000
 NQMom=    0.0000000   0.0000000   0.0000000   0.0000000   0.0000000   0.0000000   0.0000000   0.0000000   0.0000000   0.0000000
 NMagM=    0.0000000   2.7928460   2.7928460   0.0000000   2.7928460   2.7928460   0.0000000   2.7928460   2.7928460   0.0000000
 AtZNuc=   8.0000000   1.0000000   1.0000000   8.0000000   1.0000000   1.0000000   8.0000000   1.0000000   1.0000000   8.0000000

  Atom       231         232         233         234         235         236         237         238         239         240
 IAtWgt=           1           1          16           1           1          16           1           1          16           1
 AtmWgt=   1.0078250   1.0078250  15.9949146   1.0078250   1.0078250  15.9949146   1.0078250   1.0078250  15.9949146   1.0078250
 NucSpn=           1           1           0           1           1           0           1           1           0           1
 AtZEff=   0.0000000   0.0000000   0.0000000   0.0000000   0.0000000   0.0000000   0.0000000   0.0000000   0.0000000   0.0000000
 NQMom=    0.0000000   0.0000000   0.0000000   0.0000000   0.0000000   0.0000000   0.0000000   0.0000000   0.0000000   0.0000000
 NMagM=    2.7928460   2.7928460   0.0000000   2.7928460   2.7928460   0.0000000   2.7928460   2.7928460   0.0000000   2.7928460
 AtZNuc=   1.0000000   1.0000000   8.0000000   1.0000000   1.0000000   8.0000000   1.0000000   1.0000000   8.0000000   1.0000000

  Atom       241         242         243         244         245         246         247         248         249         250
 IAtWgt=           1          16           1           1          16           1           1          16           1           1
 AtmWgt=   1.0078250  15.9949146   1.0078250   1.0078250  15.9949146   1.0078250   1.0078250  15.9949146   1.0078250   1.0078250
 NucSpn=           1           0           1           1           0           1           1           0           1           1
 AtZEff=   0.0000000   0.0000000   0.0000000   0.0000000   0.0000000   0.0000000   0.0000000   0.0000000   0.0000000   0.0000000
 NQMom=    0.0000000   0.0000000   0.0000000   0.0000000   0.0000000   0.0000000   0.0000000   0.0000000   0.0000000   0.0000000
 NMagM=    2.7928460   0.0000000   2.7928460   2.7928460   0.0000000   2.7928460   2.7928460   0.0000000   2.7928460   2.7928460
 AtZNuc=   1.0000000   8.0000000   1.0000000   1.0000000   8.0000000   1.0000000   1.0000000   8.0000000   1.0000000   1.0000000

  Atom       251         252         253         254         255         256         257         258         259         260
 IAtWgt=          16           1           1          16           1           1          16           1           1          16
 AtmWgt=  15.9949146   1.0078250   1.0078250  15.9949146   1.0078250   1.0078250  15.9949146   1.0078250   1.0078250  15.9949146
 NucSpn=           0           1           1           0           1           1           0           1           1           0
 AtZEff=   0.0000000   0.0000000   0.0000000   0.0000000   0.0000000   0.0000000   0.0000000   0.0000000   0.0000000   0.0000000
 NQMom=    0.0000000   0.0000000   0.0000000   0.0000000   0.0000000   0.0000000   0.0000000   0.0000000   0.0000000   0.0000000
 NMagM=    0.0000000   2.7928460   2.7928460   0.0000000   2.7928460   2.7928460   0.0000000   2.7928460   2.7928460   0.0000000
 AtZNuc=   8.0000000   1.0000000   1.0000000   8.0000000   1.0000000   1.0000000   8.0000000   1.0000000   1.0000000   8.0000000

  Atom       261         262         263         264         265         266         267         268         269         270
 IAtWgt=           1           1          16           1           1          16           1           1          16           1
 AtmWgt=   1.0078250   1.0078250  15.9949146   1.0078250   1.0078250  15.9949146   1.0078250   1.0078250  15.9949146   1.0078250
 NucSpn=           1           1           0           1           1           0           1           1           0           1
 AtZEff=   0.0000000   0.0000000   0.0000000   0.0000000   0.0000000   0.0000000   0.0000000   0.0000000   0.0000000   0.0000000
 NQMom=    0.0000000   0.0000000   0.0000000   0.0000000   0.0000000   0.0000000   0.0000000   0.0000000   0.0000000   0.0000000
 NMagM=    2.7928460   2.7928460   0.0000000   2.7928460   2.7928460   0.0000000   2.7928460   2.7928460   0.0000000   2.7928460
 AtZNuc=   1.0000000   1.0000000   8.0000000   1.0000000   1.0000000   8.0000000   1.0000000   1.0000000   8.0000000   1.0000000

  Atom       271         272         273         274         275         276         277         278         279         280
 IAtWgt=           1          16           1           1          16           1           1          16           1           1
 AtmWgt=   1.0078250  15.9949146   1.0078250   1.0078250  15.9949146   1.0078250   1.0078250  15.9949146   1.0078250   1.0078250
 NucSpn=           1           0           1           1           0           1           1           0           1           1
 AtZEff=   0.0000000   0.0000000   0.0000000   0.0000000   0.0000000   0.0000000   0.0000000   0.0000000   0.0000000   0.0000000
 NQMom=    0.0000000   0.0000000   0.0000000   0.0000000   0.0000000   0.0000000   0.0000000   0.0000000   0.0000000   0.0000000
 NMagM=    2.7928460   0.0000000   2.7928460   2.7928460   0.0000000   2.7928460   2.7928460   0.0000000   2.7928460   2.7928460
 AtZNuc=   1.0000000   8.0000000   1.0000000   1.0000000   8.0000000   1.0000000   1.0000000   8.0000000   1.0000000   1.0000000

  Atom       281         282         283         284         285         286         287         288         289         290
 IAtWgt=          16           1           1          16           1           1          16           1           1          16
 AtmWgt=  15.9949146   1.0078250   1.0078250  15.9949146   1.0078250   1.0078250  15.9949146   1.0078250   1.0078250  15.9949146
 NucSpn=           0           1           1           0           1           1           0           1           1           0
 AtZEff=   0.0000000   0.0000000   0.0000000   0.0000000   0.0000000   0.0000000   0.0000000   0.0000000   0.0000000   0.0000000
 NQMom=    0.0000000   0.0000000   0.0000000   0.0000000   0.0000000   0.0000000   0.0000000   0.0000000   0.0000000   0.0000000
 NMagM=    0.0000000   2.7928460   2.7928460   0.0000000   2.7928460   2.7928460   0.0000000   2.7928460   2.7928460   0.0000000
 AtZNuc=   8.0000000   1.0000000   1.0000000   8.0000000   1.0000000   1.0000000   8.0000000   1.0000000   1.0000000   8.0000000

  Atom       291         292         293         294         295         296         297         298         299         300
 IAtWgt=           1           1          16           1           1          16           1           1          16           1
 AtmWgt=   1.0078250   1.0078250  15.9949146   1.0078250   1.0078250  15.9949146   1.0078250   1.0078250  15.9949146   1.0078250
 NucSpn=           1           1           0           1           1           0           1           1           0           1
 AtZEff=   0.0000000   0.0000000   0.0000000   0.0000000   0.0000000   0.0000000   0.0000000   0.0000000   0.0000000   0.0000000
 NQMom=    0.0000000   0.0000000   0.0000000   0.0000000   0.0000000   0.0000000   0.0000000   0.0000000   0.0000000   0.0000000
 NMagM=    2.7928460   2.7928460   0.0000000   2.7928460   2.7928460   0.0000000   2.7928460   2.7928460   0.0000000   2.7928460
 AtZNuc=   1.0000000   1.0000000   8.0000000   1.0000000   1.0000000   8.0000000   1.0000000   1.0000000   8.0000000   1.0000000

  Atom       301         302         303         304         305         306         307         308         309         310
 IAtWgt=           1          16           1           1          16           1           1          16           1           1
 AtmWgt=   1.0078250  15.9949146   1.0078250   1.0078250  15.9949146   1.0078250   1.0078250  15.9949146   1.0078250   1.0078250
 NucSpn=           1           0           1           1           0           1           1           0           1           1
 AtZEff=   0.0000000   0.0000000   0.0000000   0.0000000   0.0000000   0.0000000   0.0000000   0.0000000   0.0000000   0.0000000
 NQMom=    0.0000000   0.0000000   0.0000000   0.0000000   0.0000000   0.0000000   0.0000000   0.0000000   0.0000000   0.0000000
 NMagM=    2.7928460   0.0000000   2.7928460   2.7928460   0.0000000   2.7928460   2.7928460   0.0000000   2.7928460   2.7928460
 AtZNuc=   1.0000000   8.0000000   1.0000000   1.0000000   8.0000000   1.0000000   1.0000000   8.0000000   1.0000000   1.0000000

  Atom       311         312         313         314         315         316         317         318         319         320
 IAtWgt=          16           1           1          16           1           1          16           1           1          16
 AtmWgt=  15.9949146   1.0078250   1.0078250  15.9949146   1.0078250   1.0078250  15.9949146   1.0078250   1.0078250  15.9949146
 NucSpn=           0           1           1           0           1           1           0           1           1           0
 AtZEff=   0.0000000   0.0000000   0.0000000   0.0000000   0.0000000   0.0000000   0.0000000   0.0000000   0.0000000   0.0000000
 NQMom=    0.0000000   0.0000000   0.0000000   0.0000000   0.0000000   0.0000000   0.0000000   0.0000000   0.0000000   0.0000000
 NMagM=    0.0000000   2.7928460   2.7928460   0.0000000   2.7928460   2.7928460   0.0000000   2.7928460   2.7928460   0.0000000
 AtZNuc=   8.0000000   1.0000000   1.0000000   8.0000000   1.0000000   1.0000000   8.0000000   1.0000000   1.0000000   8.0000000

  Atom       321         322         323         324         325         326         327         328         329         330
 IAtWgt=           1           1          16           1           1          16           1           1          16           1
 AtmWgt=   1.0078250   1.0078250  15.9949146   1.0078250   1.0078250  15.9949146   1.0078250   1.0078250  15.9949146   1.0078250
 NucSpn=           1           1           0           1           1           0           1           1           0           1
 AtZEff=   0.0000000   0.0000000   0.0000000   0.0000000   0.0000000   0.0000000   0.0000000   0.0000000   0.0000000   0.0000000
 NQMom=    0.0000000   0.0000000   0.0000000   0.0000000   0.0000000   0.0000000   0.0000000   0.0000000   0.0000000   0.0000000
 NMagM=    2.7928460   2.7928460   0.0000000   2.7928460   2.7928460   0.0000000   2.7928460   2.7928460   0.0000000   2.7928460
 AtZNuc=   1.0000000   1.0000000   8.0000000   1.0000000   1.0000000   8.0000000   1.0000000   1.0000000   8.0000000   1.0000000

  Atom       331         332         333         334         335         336         337         338         339         340
 IAtWgt=           1          16           1           1          16           1           1          16           1           1
 AtmWgt=   1.0078250  15.9949146   1.0078250   1.0078250  15.9949146   1.0078250   1.0078250  15.9949146   1.0078250   1.0078250
 NucSpn=           1           0           1           1           0           1           1           0           1           1
 AtZEff=   0.0000000   0.0000000   0.0000000   0.0000000   0.0000000   0.0000000   0.0000000   0.0000000   0.0000000   0.0000000
 NQMom=    0.0000000   0.0000000   0.0000000   0.0000000   0.0000000   0.0000000   0.0000000   0.0000000   0.0000000   0.0000000
 NMagM=    2.7928460   0.0000000   2.7928460   2.7928460   0.0000000   2.7928460   2.7928460   0.0000000   2.7928460   2.7928460
 AtZNuc=   1.0000000   8.0000000   1.0000000   1.0000000   8.0000000   1.0000000   1.0000000   8.0000000   1.0000000   1.0000000

  Atom       341         342         343         344         345         346         347         348         349         350
 IAtWgt=          16           1           1          16           1           1          16           1           1          16
 AtmWgt=  15.9949146   1.0078250   1.0078250  15.9949146   1.0078250   1.0078250  15.9949146   1.0078250   1.0078250  15.9949146
 NucSpn=           0           1           1           0           1           1           0           1           1           0
 AtZEff=   0.0000000   0.0000000   0.0000000   0.0000000   0.0000000   0.0000000   0.0000000   0.0000000   0.0000000   0.0000000
 NQMom=    0.0000000   0.0000000   0.0000000   0.0000000   0.0000000   0.0000000   0.0000000   0.0000000   0.0000000   0.0000000
 NMagM=    0.0000000   2.7928460   2.7928460   0.0000000   2.7928460   2.7928460   0.0000000   2.7928460   2.7928460   0.0000000
 AtZNuc=   8.0000000   1.0000000   1.0000000   8.0000000   1.0000000   1.0000000   8.0000000   1.0000000   1.0000000   8.0000000

  Atom       351         352         353         354         355         356         357         358         359         360
 IAtWgt=           1           1          16           1           1          16           1           1          16           1
 AtmWgt=   1.0078250   1.0078250  15.9949146   1.0078250   1.0078250  15.9949146   1.0078250   1.0078250  15.9949146   1.0078250
 NucSpn=           1           1           0           1           1           0           1           1           0           1
 AtZEff=   0.0000000   0.0000000   0.0000000   0.0000000   0.0000000   0.0000000   0.0000000   0.0000000   0.0000000   0.0000000
 NQMom=    0.0000000   0.0000000   0.0000000   0.0000000   0.0000000   0.0000000   0.0000000   0.0000000   0.0000000   0.0000000
 NMagM=    2.7928460   2.7928460   0.0000000   2.7928460   2.7928460   0.0000000   2.7928460   2.7928460   0.0000000   2.7928460
 AtZNuc=   1.0000000   1.0000000   8.0000000   1.0000000   1.0000000   8.0000000   1.0000000   1.0000000   8.0000000   1.0000000

  Atom       361         362         363         364         365         366         367         368         369         370
 IAtWgt=           1          16           1           1          16           1           1          16           1           1
 AtmWgt=   1.0078250  15.9949146   1.0078250   1.0078250  15.9949146   1.0078250   1.0078250  15.9949146   1.0078250   1.0078250
 NucSpn=           1           0           1           1           0           1           1           0           1           1
 AtZEff=   0.0000000   0.0000000   0.0000000   0.0000000   0.0000000   0.0000000   0.0000000   0.0000000   0.0000000   0.0000000
 NQMom=    0.0000000   0.0000000   0.0000000   0.0000000   0.0000000   0.0000000   0.0000000   0.0000000   0.0000000   0.0000000
 NMagM=    2.7928460   0.0000000   2.7928460   2.7928460   0.0000000   2.7928460   2.7928460   0.0000000   2.7928460   2.7928460
 AtZNuc=   1.0000000   8.0000000   1.0000000   1.0000000   8.0000000   1.0000000   1.0000000   8.0000000   1.0000000   1.0000000

  Atom       371         372         373         374         375         376         377         378         379         380
 IAtWgt=          16           1           1          16           1           1          16           1           1          16
 AtmWgt=  15.9949146   1.0078250   1.0078250  15.9949146   1.0078250   1.0078250  15.9949146   1.0078250   1.0078250  15.9949146
 NucSpn=           0           1           1           0           1           1           0           1           1           0
 AtZEff=   0.0000000   0.0000000   0.0000000   0.0000000   0.0000000   0.0000000   0.0000000   0.0000000   0.0000000   0.0000000
 NQMom=    0.0000000   0.0000000   0.0000000   0.0000000   0.0000000   0.0000000   0.0000000   0.0000000   0.0000000   0.0000000
 NMagM=    0.0000000   2.7928460   2.7928460   0.0000000   2.7928460   2.7928460   0.0000000   2.7928460   2.7928460   0.0000000
 AtZNuc=   8.0000000   1.0000000   1.0000000   8.0000000   1.0000000   1.0000000   8.0000000   1.0000000   1.0000000   8.0000000

  Atom       381         382         383         384         385
 IAtWgt=           1           1          16           1           1
 AtmWgt=   1.0078250   1.0078250  15.9949146   1.0078250   1.0078250
 NucSpn=           1           1           0           1           1
 AtZEff=   0.0000000   0.0000000   0.0000000   0.0000000   0.0000000
 NQMom=    0.0000000   0.0000000   0.0000000   0.0000000   0.0000000
 NMagM=    2.7928460   2.7928460   0.0000000   2.7928460   2.7928460
 AtZNuc=   1.0000000   1.0000000   8.0000000   1.0000000   1.0000000
 Leave Link  101 at Sun May  6 18:07:24 2018, MaxMem= 14763950080 cpu:        33.2
 (Enter /cm/shared/gaussian/g09.e01/intel64-sandybridge/g09/l103.exe)

 GradGradGradGradGradGradGradGradGradGradGradGradGradGradGradGradGradGrad
 Berny optimization.
 Initialization pass.
 Trust Radius=3.00D-01 FncErr=1.00D-07 GrdErr=1.00D-07
 Number of steps in this run=      2 maximum allowed number of steps=      2.
 GradGradGradGradGradGradGradGradGradGradGradGradGradGradGradGradGradGrad

 Leave Link  103 at Sun May  6 18:07:24 2018, MaxMem= 14763950080 cpu:         3.7
 (Enter /cm/shared/gaussian/g09.e01/intel64-sandybridge/g09/l202.exe)
 Symmetry turned off by external request.
 Stoichiometry    BrH256O128(1-)
 Framework group  C1[X(BrH256O128)]
 Deg. of freedom  1149
 Full point group                 C1      NOp   1
                          Input orientation:                          
 ---------------------------------------------------------------------
 Center     Atomic      Atomic             Coordinates (Angstroms)
 Number     Number       Type             X           Y           Z
 ---------------------------------------------------------------------
      1         35           0       20.000000   20.000000   20.000000
      2          8           0       17.420000   21.670000   18.830000
      3          1           0       17.560000   22.600000   18.950000
      4          1           0       18.240000   21.260000   19.120000
      5          8           0       19.500000   16.800000   20.620000
      6          1           0       19.600000   17.670000   20.240000
      7          1           0       19.350000   16.230000   19.870000
      8          8           0       22.720000   18.050000   20.120000
      9          1           0       21.980000   18.640000   19.960000
     10          1           0       22.560000   17.690000   20.990000
     11          8           0       19.370000   23.080000   21.280000
     12          1           0       19.600000   22.300000   20.770000
     13          1           0       19.850000   22.970000   22.110000
     14          8           0       18.020000   19.770000   22.740000
     15          1           0       18.490000   20.030000   21.940000
     16          1           0       17.640000   18.920000   22.520000
     17          8           0       19.400000   19.990000   16.630000
     18          1           0       19.490000   19.770000   17.560000
     19          1           0       19.830000   20.840000   16.550000
     20          8           0       16.000000   18.770000   20.580000
     21          1           0       16.760000   19.220000   20.220000
     22          1           0       15.280000   19.000000   19.990000
     23          8           0       21.370000   20.040000   24.050000
     24          1           0       21.090000   20.310000   23.180000
     25          1           0       21.030000   19.150000   24.150000
     26          8           0       22.220000   22.970000   18.000000
     27          1           0       22.440000   22.510000   17.190000
     28          1           0       22.240000   22.290000   18.670000
     29          8           0       24.160000   19.470000   18.330000
     30          1           0       23.750000   19.050000   19.080000
     31          1           0       24.240000   20.390000   18.590000
     32          8           0       20.830000   16.770000   23.000000
     33          1           0       20.310000   16.700000   22.200000
     34          1           0       20.250000   16.450000   23.690000
     35          8           0       18.860000   24.290000   18.890000
     36          1           0       19.170000   23.940000   19.720000
     37          1           0       18.490000   25.140000   19.100000
     38          8           0       22.320000   18.330000   16.410000
     39          1           0       22.880000   17.870000   15.780000
     40          1           0       22.930000   18.870000   16.920000
     41          8           0       20.120000   23.420000   16.300000
     42          1           0       19.360000   23.960000   16.530000
     43          1           0       20.630000   23.360000   17.110000
     44          8           0       22.760000   24.250000   21.120000
     45          1           0       23.710000   24.380000   21.160000
     46          1           0       22.620000   23.750000   20.320000
     47          8           0       19.080000   17.420000   15.210000
     48          1           0       19.780000   16.840000   15.520000
     49          1           0       19.340000   18.280000   15.530000
     50          8           0       17.140000   22.650000   24.000000
     51          1           0       17.030000   22.330000   23.100000
     52          1           0       17.550000   21.930000   24.470000
     53          8           0       17.540000   21.040000   14.580000
     54          1           0       16.720000   21.370000   14.960000
     55          1           0       18.070000   20.790000   15.340000
     56          8           0       15.660000   15.890000   20.390000
     57          1           0       16.190000   15.260000   20.880000
     58          1           0       16.080000   16.740000   20.570000
     59          8           0       15.640000   23.630000   20.910000
     60          1           0       15.350000   23.030000   20.220000
     61          1           0       16.570000   23.770000   20.730000
     62          8           0       15.050000   22.060000   17.070000
     63          1           0       15.910000   21.760000   17.350000
     64          1           0       14.710000   21.360000   16.530000
     65          8           0       20.780000   23.630000   23.620000
     66          1           0       21.590000   24.110000   23.800000
     67          1           0       20.550000   23.220000   24.450000
     68          8           0       17.760000   20.270000   25.640000
     69          1           0       18.420000   19.650000   25.940000
     70          1           0       17.770000   20.190000   24.690000
     71          8           0       24.810000   16.720000   17.860000
     72          1           0       24.390000   16.770000   17.000000
     73          1           0       24.400000   17.430000   18.370000
     74          8           0       23.800000   22.220000   24.430000
     75          1           0       23.300000   21.580000   23.920000
     76          1           0       23.290000   22.340000   25.230000
     77          8           0       18.080000   16.090000   23.930000
     78          1           0       17.410000   15.440000   24.130000
     79          1           0       18.350000   15.890000   23.030000
     80          8           0       20.780000   19.740000   13.770000
     81          1           0       20.890000   19.530000   14.700000
     82          1           0       20.420000   18.940000   13.380000
     83          8           0       20.290000   25.740000   21.710000
     84          1           0       20.010000   24.950000   22.180000
     85          1           0       21.230000   25.610000   21.570000
     86          8           0       14.940000   19.310000   23.370000
     87          1           0       14.400000   20.030000   23.070000
     88          1           0       15.330000   18.950000   22.570000
     89          8           0       23.570000   21.540000   16.150000
     90          1           0       24.460000   21.190000   16.100000
     91          1           0       23.420000   21.950000   15.300000
     92          8           0       21.770000   21.490000   26.160000
     93          1           0       21.420000   21.310000   25.290000
     94          1           0       21.550000   20.710000   26.680000
     95          8           0       21.860000   14.320000   19.210000
     96          1           0       22.320000   14.850000   19.850000
     97          1           0       22.500000   14.190000   18.500000
     98          8           0       25.350000   21.770000   19.540000
     99          1           0       25.690000   20.970000   19.940000
    100          1           0       26.130000   22.260000   19.280000
    101          8           0       23.440000   16.340000   23.650000
    102          1           0       22.490000   16.320000   23.540000
    103          1           0       23.570000   16.770000   24.500000
    104          8           0       21.870000   22.660000   14.060000
    105          1           0       21.350000   22.020000   13.580000
    106          1           0       21.480000   22.690000   14.930000
    107          8           0       24.150000   15.240000   21.170000
    108          1           0       24.370000   15.890000   20.510000
    109          1           0       24.110000   15.730000   21.990000
    110          8           0       17.830000   14.760000   16.130000
    111          1           0       17.800000   15.710000   16.290000
    112          1           0       16.920000   14.510000   15.990000
    113          8           0       16.510000   17.220000   15.070000
    114          1           0       17.460000   17.300000   15.080000
    115          1           0       16.310000   16.900000   14.190000
    116          8           0       19.360000   13.640000   19.880000
    117          1           0       19.620000   13.400000   20.770000
    118          1           0       20.200000   13.790000   19.430000
    119          8           0       13.950000   19.070000   18.680000
    120          1           0       13.930000   18.880000   17.740000
    121          1           0       13.280000   19.740000   18.800000
    122          8           0       21.170000   15.750000   15.310000
    123          1           0       21.360000   14.970000   15.830000
    124          1           0       21.980000   16.260000   15.340000
    125          8           0       23.900000   25.850000   18.080000
    126          1           0       23.220000   25.210000   17.870000
    127          1           0       24.700000   25.330000   18.140000
    128          8           0       18.810000   26.810000   19.740000
    129          1           0       19.210000   26.970000   18.880000
    130          1           0       19.550000   26.620000   20.320000
    131          8           0       13.820000   22.810000   22.580000
    132          1           0       14.400000   23.200000   21.930000
    133          1           0       14.050000   23.240000   23.400000
    134          8           0       19.890000   18.720000   26.790000
    135          1           0       19.560000   17.830000   26.710000
    136          1           0       20.840000   18.620000   26.860000
    137          8           0       15.380000   13.980000   18.270000
    138          1           0       15.270000   14.140000   17.330000
    139          1           0       15.550000   14.850000   18.630000
    140          8           0       17.140000   13.880000   21.640000
    141          1           0       17.320000   13.240000   20.950000
    142          1           0       17.840000   13.750000   22.280000
    143          8           0       19.220000   17.720000   12.510000
    144          1           0       19.050000   17.960000   13.420000
    145          1           0       18.370000   17.790000   12.080000
    146          8           0       18.590000   16.330000   26.530000
    147          1           0       17.690000   16.550000   26.770000
    148          1           0       18.540000   16.090000   25.610000
    149          8           0       26.970000   19.410000   20.250000
    150          1           0       27.360000   18.820000   19.610000
    151          1           0       27.360000   19.160000   21.090000
    152          8           0       13.940000   16.620000   23.630000
    153          1           0       14.340000   15.970000   24.210000
    154          1           0       14.590000   17.320000   23.570000
    155          8           0       17.250000   25.180000   25.070000
    156          1           0       17.620000   25.500000   24.250000
    157          1           0       17.110000   24.250000   24.930000
    158          8           0       24.140000   14.040000   17.570000
    159          1           0       24.500000   14.910000   17.750000
    160          1           0       24.340000   13.880000   16.650000
    161          8           0       13.910000   17.740000   16.010000
    162          1           0       14.760000   17.300000   15.910000
    163          1           0       14.030000   18.580000   15.570000
    164          8           0       15.260000   19.050000   26.190000
    165          1           0       16.010000   19.650000   26.200000
    166          1           0       15.010000   18.990000   25.270000
    167          8           0       24.080000   16.750000   14.830000
    168          1           0       24.140000   15.810000   14.680000
    169          1           0       24.810000   17.120000   14.340000
    170          8           0       26.580000   22.550000   16.690000
    171          1           0       27.100000   22.110000   16.010000
    172          1           0       25.750000   22.750000   16.260000
    173          8           0       26.960000   22.360000   23.570000
    174          1           0       27.010000   23.150000   23.040000
    175          1           0       26.020000   22.240000   23.730000
    176          8           0       17.810000   26.850000   22.870000
    177          1           0       16.890000   26.710000   22.630000
    178          1           0       18.260000   26.960000   22.030000
    179          8           0       24.860000   20.590000   26.270000
    180          1           0       24.810000   20.970000   27.150000
    181          1           0       24.660000   21.310000   25.680000
    182          8           0       19.500000   22.020000   12.200000
    183          1           0       20.270000   21.820000   11.670000
    184          1           0       19.290000   21.200000   12.650000
    185          8           0       27.260000   16.610000   22.460000
    186          1           0       26.430000   16.700000   21.990000
    187          1           0       27.680000   15.840000   22.070000
    188          8           0       14.780000   26.100000   18.100000
    189          1           0       14.880000   25.420000   18.770000
    190          1           0       14.150000   25.730000   17.480000
    191          8           0       27.430000   18.480000   16.300000
    192          1           0       26.810000   18.510000   17.030000
    193          1           0       28.290000   18.370000   16.720000
    194          8           0       18.990000   13.240000   23.430000
    195          1           0       19.890000   13.380000   23.710000
    196          1           0       18.630000   12.630000   24.070000
    197          8           0       18.450000   12.380000   17.420000
    198          1           0       18.270000   13.230000   17.030000
    199          1           0       18.600000   12.560000   18.350000
    200          8           0       22.630000   18.830000   27.070000
    201          1           0       23.270000   19.510000   26.860000
    202          1           0       22.620000   18.790000   28.020000
    203          8           0       24.350000   25.730000   22.760000
    204          1           0       23.860000   26.540000   22.640000
    205          1           0       24.040000   25.380000   23.600000
    206          8           0       22.670000   25.270000   24.860000
    207          1           0       21.980000   25.870000   25.140000
[...]
   Y335      33.56154   0.00656   0.00000   0.00643   0.00609  33.56763
   Z335      20.01220  -0.00272   0.00000  -0.00397  -0.00384  20.00836
   X336      39.34410  -0.00410   0.00000  -0.00267  -0.00267  39.34143
   Y336      32.61667  -0.00554   0.00000  -0.00469  -0.00505  32.61162
   Z336      18.63270  -0.00495   0.00000  -0.00265  -0.00251  18.63019
   X337      38.70159  -0.00539   0.00000   0.00004   0.00005  38.70164
   Y337      33.54264  -0.00182   0.00000  -0.00218  -0.00250  33.54014
   Z337      21.25942   0.00684   0.00000   0.00469   0.00483  21.26425
   X338      37.49217  -0.00399   0.00000  -0.00149  -0.00128  37.49089
   Y338      29.64980   0.00033   0.00000  -0.00051  -0.00041  29.64939
   Z338      54.42411   0.01598   0.00000   0.01165   0.01184  54.43595
   X339      36.75517  -0.00468   0.00000  -0.00403  -0.00382  36.75135
   Y339      29.57421   0.00144   0.00000   0.00319   0.00327  29.57748
   Z339      52.76115  -0.00928   0.00000  -0.00325  -0.00305  52.75810
   X340      39.26851   0.00984   0.00000   0.00702   0.00723  39.27574
   Y340      29.61201  -0.00113   0.00000  -0.00180  -0.00169  29.61032
   Z340      54.12176  -0.00282   0.00000  -0.00200  -0.00181  54.11994
   X341      42.23538   0.00168   0.00000   0.00059   0.00065  42.23603
   Y341      27.32544  -0.01005   0.00000  -0.00853  -0.00880  27.31664
   Z341      23.18694  -0.01990   0.00000  -0.01563  -0.01543  23.17151
   X342      40.81808  -0.00740   0.00000  -0.00339  -0.00332  40.81476
   Y342      28.06243   0.00500   0.00000   0.00240   0.00212  28.06456
   Z342      24.01842   0.00535   0.00000  -0.00022  -0.00002  24.01840
   X343      43.57708   0.00218   0.00000  -0.00376  -0.00368  43.57340
   Y343      27.43882   0.00796   0.00000   0.01218   0.01193  27.45075
   Z343      24.37747   0.00961   0.00000   0.00633   0.00652  24.38399
   X344      45.01328   0.01152   0.00000   0.01054   0.01065  45.02392
   Y344      26.07822   0.01032   0.00000   0.00232   0.00213  26.08035
   Z344      27.57110   0.01317   0.00000   0.01107   0.01128  27.58238
   X345      45.97704   0.00872   0.00000   0.00838   0.00848  45.98552
   Y345      25.47351  -0.00829   0.00000  -0.00966  -0.00987  25.46364
   Z345      26.17271  -0.00797   0.00000  -0.00327  -0.00306  26.16964
   X346      43.48260  -0.01943   0.00000  -0.01775  -0.01764  43.46496
   Y346      25.09556  -0.00212   0.00000   0.00780   0.00759  25.10316
   Z346      27.51441   0.00179   0.00000   0.00415   0.00437  27.51878
   X347      23.50819   0.00545   0.00000   0.00309   0.00318  23.51137
   Y347      28.95060  -0.00965   0.00000  -0.00183  -0.00215  28.94845
   Z347      29.95216  -0.00165   0.00000  -0.00271  -0.00244  29.94972
   X348      21.76965  -0.01097   0.00000  -0.00868  -0.00859  21.76105
   Y348      29.17737  -0.00005   0.00000  -0.00159  -0.00194  29.17543
   Z348      29.55532  -0.00212   0.00000  -0.00151  -0.00122  29.55409
   X349      24.11291   0.00488   0.00000   0.00421   0.00429  24.11719
   Y349      30.61356   0.01426   0.00000   0.01263   0.01232  30.62588
   Z349      30.36790   0.00255   0.00000   0.00119   0.00145  30.36934
   X350      50.55017   0.00608   0.00000   0.00613   0.00627  50.55645
   Y350      35.43236  -0.01406   0.00000  -0.01269  -0.01255  35.41981
   Z350      49.03839  -0.00377   0.00000   0.00046   0.00051  49.03890
   X351      52.36431   0.00279   0.00000   0.00556   0.00570  52.37001
   Y351      35.41347  -0.00341   0.00000  -0.00578  -0.00563  35.40784
   Z351      48.96280  -0.00053   0.00000  -0.00076  -0.00072  48.96208
   X352      50.15333  -0.00709   0.00000  -0.00886  -0.00873  50.14460
   Y352      36.96304   0.01133   0.00000   0.00701   0.00716  36.97020
   Z352      49.90767  -0.00069   0.00000  -0.00885  -0.00882  49.89885
   X353      27.30654  -0.00286   0.00000  -0.00511  -0.00502  27.30152
   Y353      44.14400   0.00295   0.00000  -0.00263  -0.00265  44.14135
   Z353      50.92812  -0.01641   0.00000  -0.01139  -0.01133  50.91679
   X354      28.02464   0.00839   0.00000   0.01071   0.01081  28.03545
   Y354      42.49994  -0.00910   0.00000  -0.00559  -0.00560  42.49434
   Z354      51.21158   0.00719   0.00000   0.00913   0.00921  51.22079
   X355      26.73962  -0.00494   0.00000  -0.00479  -0.00470  26.73492
   Y355      44.67313   0.00051   0.00000  -0.00188  -0.00188  44.67124
   Z355      52.55328   0.01081   0.00000   0.00491   0.00496  52.55825
   X356      53.40366   0.00933   0.00000   0.00522   0.00522  53.40888
   Y356      39.53307   0.02065   0.00000   0.01406   0.01395  39.54702
   Z356      28.76163  -0.00769   0.00000  -0.00633  -0.00635  28.75528
   X357      53.08241  -0.00872   0.00000  -0.00976  -0.00974  53.07267
   Y357      37.98350  -0.01543   0.00000  -0.00520  -0.00531  37.97819
   Z357      29.61201   0.00946   0.00000   0.00567   0.00567  29.61768
   X358      52.02416  -0.00442   0.00000  -0.00229  -0.00230  52.02186
   Y358      39.68425   0.00216   0.00000   0.00480   0.00466  39.68891
   Z358      27.57110  -0.00737   0.00000  -0.00942  -0.00943  27.56167
   X359      28.89391  -0.00835   0.00000  -0.01233  -0.01239  28.88152
   Y359      45.06997   0.00295   0.00000   0.00679   0.00643  45.07640
   Z359      24.22629   0.00733   0.00000   0.01043   0.01046  24.23675
   X360      28.91281   0.00383   0.00000   0.00555   0.00547  28.91828
   Y360      46.86521   0.00559   0.00000   0.00770   0.00734  46.87254
   Z360      23.96173  -0.00191   0.00000  -0.00168  -0.00167  23.96006
   X361      27.64669  -0.00393   0.00000  -0.00822  -0.00827  27.63842
   Y361      44.82430   0.00236   0.00000   0.00623   0.00587  44.83018
   Z361      25.51130   0.00648   0.00000   0.01259   0.01263  25.52394
   X362      21.93972  -0.01355   0.00000  -0.01029  -0.01029  21.92943
   Y362      47.98015   0.00388   0.00000   0.00320   0.00301  47.98315
   Z362      40.61021  -0.00330   0.00000   0.00136   0.00140  40.61161
   X363      22.75230   0.00821   0.00000   0.00772   0.00773  22.76003
   Y363      48.20691   0.00054   0.00000  -0.00019  -0.00036  48.20655
   Z363      42.19758   0.01113   0.00000   0.00797   0.00800  42.20558
   X364      23.11135   0.00299   0.00000  -0.00165  -0.00165  23.10970
   Y364      46.99749   0.00032   0.00000   0.00613   0.00593  47.00342
   Z364      39.62756  -0.00810   0.00000  -0.00992  -0.00988  39.61768
   X365      19.86102  -0.01880   0.00000  -0.01039  -0.01029  19.85073
   Y365      33.71271   0.01781   0.00000   0.01007   0.00983  33.72255
   Z365      39.00395   0.00516   0.00000   0.00319   0.00343  39.00737
   X366      21.14604   0.01961   0.00000   0.01292   0.01303  21.15907
   Y366      32.48439  -0.01660   0.00000  -0.00859  -0.00882  32.47558
   Z366      38.77718  -0.00292   0.00000   0.00024   0.00049  38.77767
   X367      19.46418   0.00337   0.00000   0.00473   0.00482  19.46899
   Y367      34.27963  -0.00160   0.00000  -0.00146  -0.00172  34.27791
   Z367      37.32209  -0.00191   0.00000  -0.00356  -0.00333  37.31876
   X368      35.71582  -0.00906   0.00000  -0.00676  -0.00685  35.70897
   Y368      46.63844   0.00514   0.00000   0.00603   0.00568  46.64412
   Z368      21.16493  -0.01269   0.00000  -0.01012  -0.01015  21.15479
   X369      36.86856   0.00647   0.00000   0.00438   0.00429  36.87284
   Y369      47.67779   0.00163   0.00000  -0.00127  -0.00160  47.67619
   Z369      22.09090   0.00647   0.00000   0.00485   0.00481  22.09571
   X370      35.81031  -0.00021   0.00000  -0.00236  -0.00244  35.80787
   Y370      45.01328  -0.00428   0.00000   0.00076   0.00042  45.01370
   Z370      21.95862   0.00408   0.00000   0.00147   0.00147  21.96009
   X371      29.51752  -0.00592   0.00000  -0.00556  -0.00551  29.51201
   Y371      30.78364  -0.01144   0.00000  -0.00859  -0.00895  30.77469
   Z371      24.03732   0.00349   0.00000  -0.00373  -0.00351  24.03381
   X372      30.04665   0.00614   0.00000   0.00568   0.00571  30.05235
   Y372      32.10645   0.01303   0.00000   0.01187   0.01150  32.11794
   Z372      22.92238  -0.00574   0.00000  -0.00046  -0.00026  22.92211
   X373      27.70339  -0.00312   0.00000  -0.00545  -0.00540  27.69798
   Y373      30.87813  -0.00204   0.00000  -0.00298  -0.00336  30.87477
   Z373      24.03732   0.00256   0.00000   0.00408   0.00431  24.04163
   X374      30.51908  -0.00134   0.00000   0.00241   0.00247  30.52154
   Y374      48.32030   0.00909   0.00000   0.00861   0.00863  48.32892
   Z374      51.91078   0.03271   0.00000   0.02496   0.02495  51.93572
   X375      30.89702   0.00494   0.00000   0.00375   0.00380  30.90082
   Y375      48.26361  -0.00240   0.00000   0.00060   0.00060  48.26420
   Z375      50.15333  -0.01978   0.00000  -0.00520  -0.00521  50.14812
   X376      29.83878   0.00133   0.00000   0.00257   0.00264  29.84142
   Y376      46.67624  -0.00283   0.00000  -0.00227  -0.00225  46.67398
   Z376      52.28872  -0.00909   0.00000  -0.01283  -0.01282  52.27590
   X377      33.78830  -0.01024   0.00000  -0.00726  -0.00721  33.78109
   Y377      28.78053   0.00394   0.00000   0.00883   0.00847  28.78900
   Z377      21.63736  -0.02160   0.00000  -0.02186  -0.02163  21.61573
   X378      35.48906   0.00454   0.00000  -0.00382  -0.00377  35.48529
   Y378      28.45928  -0.00029   0.00000   0.00099   0.00065  28.45993
   Z378      22.16649   0.00952   0.00000   0.00912   0.00935  22.17583
   X379      32.93793   0.00067   0.00000   0.00190   0.00195  32.93988
   Y379      29.34745  -0.00330   0.00000  -0.00813  -0.00847  29.33897
   Z379      23.13025   0.00573   0.00000   0.00060   0.00083  23.13107
   X380      52.34541   0.02057   0.00000   0.01677   0.01693  52.36235
   Y380      26.90970   0.01359   0.00000   0.01381   0.01383  26.92353
   Z380      39.60866   0.01427   0.00000   0.00107   0.00122  39.60988
   X381      51.21158  -0.02087   0.00000  -0.01816  -0.01801  51.19357
   Y381      26.39947  -0.01042   0.00000  -0.00874  -0.00874  26.39073
   Z381      38.30475  -0.01464   0.00000  -0.00301  -0.00284  38.30191
   X382      53.64932  -0.00027   0.00000  -0.00009   0.00008  53.64941
   Y382      25.64358  -0.00236   0.00000  -0.00367  -0.00364  25.63995
   Z382      39.58976   0.00083   0.00000   0.00227   0.00244  39.59220
   X383      28.78053   0.00725   0.00000   0.00647   0.00665  28.78718
   Y383      20.74919  -0.01957   0.00000  -0.01258  -0.01279  20.73640
   Z383      35.67803   0.00431   0.00000   0.00164   0.00200  35.68003
   X384      27.13647  -0.00790   0.00000  -0.00432  -0.00414  27.13233
   Y384      20.93817   0.00676   0.00000   0.00799   0.00776  20.94592
   Z384      34.95993  -0.00062   0.00000   0.00344   0.00381  34.96374
   X385      29.42304   0.00246   0.00000   0.00059   0.00076  29.42380
   Y385      22.43105   0.01485   0.00000   0.00894   0.00873  22.43978
   Z385      35.73472  -0.00615   0.00000  -0.01058  -0.01025  35.72448
         Item               Value     Threshold  Converged?
 Maximum Force            0.034221     0.000450     NO 
 RMS     Force            0.010658     0.000300     NO 
 Maximum Displacement     0.029135     0.001800     NO 
 RMS     Displacement     0.008848     0.001200     NO 
 Predicted change in Energy=-7.412483D-02
 GradGradGradGradGradGradGradGradGradGradGradGradGradGradGradGradGradGrad

 Leave Link  103 at Sun May  6 20:18:42 2018, MaxMem= 14763950080 cpu:      3180.7
 (Enter /cm/shared/gaussian/g09.e01/intel64-sandybridge/g09/l9999.exe)
 1\1\GINC-POPLE04\Force\RPBE1PBE\CC-pVDZ\Br1H256O128(1-)\M.PELUSO\06-Ma
 y-2018\0\\#p PBE1PBE/cc-pvDZ force Counterpoise=2 noSymm\\forces on ch
 loride comput - NWATER: 128\\-1,1\Br,20.,20.,20.\O,17.42,21.67,18.83\H
 ,17.56,22.6,18.95\H,18.24,21.26,19.12\O,19.5,16.8,20.62\H,19.6,17.67,2
 0.24\H,19.35,16.23,19.87\O,22.72,18.05,20.12\H,21.98,18.64,19.96\H,22.
 56,17.69,20.99\O,19.37,23.08,21.28\H,19.6,22.3,20.77\H,19.85,22.97,22.
 11\O,18.02,19.77,22.74\H,18.49,20.03,21.94\H,17.64,18.92,22.52\O,19.4,
 19.99,16.63\H,19.49,19.77,17.56\H,19.83,20.84,16.55\O,16.,18.77,20.58\
 H,16.76,19.22,20.22\H,15.28,19.,19.99\O,21.37,20.04,24.05\H,21.09,20.3
 1,23.18\H,21.03,19.15,24.15\O,22.22,22.97,18.\H,22.44,22.51,17.19\H,22
 .24,22.29,18.67\O,24.16,19.47,18.33\H,23.75,19.05,19.08\H,24.24,20.39,
 18.59\O,20.83,16.77,23.\H,20.31,16.7,22.2\H,20.25,16.45,23.69\O,18.86,
 24.29,18.89\H,19.17,23.94,19.72\H,18.49,25.14,19.1\O,22.32,18.33,16.41
 \H,22.88,17.87,15.78\H,22.93,18.87,16.92\O,20.12,23.42,16.3\H,19.36,23
 .96,16.53\H,20.63,23.36,17.11\O,22.76,24.25,21.12\H,23.71,24.38,21.16\
 H,22.62,23.75,20.32\O,19.08,17.42,15.21\H,19.78,16.84,15.52\H,19.34,18
 .28,15.53\O,17.14,22.65,24.\H,17.03,22.33,23.1\H,17.55,21.93,24.47\O,1
 7.54,21.04,14.58\H,16.72,21.37,14.96\H,18.07,20.79,15.34\O,15.66,15.89
 ,20.39\H,16.19,15.26,20.88\H,16.08,16.74,20.57\O,15.64,23.63,20.91\H,1
 5.35,23.03,20.22\H,16.57,23.77,20.73\O,15.05,22.06,17.07\H,15.91,21.76
 ,17.35\H,14.71,21.36,16.53\O,20.78,23.63,23.62\H,21.59,24.11,23.8\H,20
 .55,23.22,24.45\O,17.76,20.27,25.64\H,18.42,19.65,25.94\H,17.77,20.19,
 24.69\O,24.81,16.72,17.86\H,24.39,16.77,17.\H,24.4,17.43,18.37\O,23.8,
 22.22,24.43\H,23.3,21.58,23.92\H,23.29,22.34,25.23\O,18.08,16.09,23.93
 \H,17.41,15.44,24.13\H,18.35,15.89,23.03\O,20.78,19.74,13.77\H,20.89,1
 9.53,14.7\H,20.42,18.94,13.38\O,20.29,25.74,21.71\H,20.01,24.95,22.18\
 H,21.23,25.61,21.57\O,14.94,19.31,23.37\H,14.4,20.03,23.07\H,15.33,18.
 95,22.57\O,23.57,21.54,16.15\H,24.46,21.19,16.1\H,23.42,21.95,15.3\O,2
 1.77,21.49,26.16\H,21.42,21.31,25.29\H,21.55,20.71,26.68\O,21.86,14.32
 ,19.21\H,22.32,14.85,19.85\H,22.5,14.19,18.5\O,25.35,21.77,19.54\H,25.
 69,20.97,19.94\H,26.13,22.26,19.28\O,23.44,16.34,23.65\H,22.49,16.32,2
 3.54\H,23.57,16.77,24.5\O,21.87,22.66,14.06\H,21.35,22.02,13.58\H,21.4
 8,22.69,14.93\O,24.15,15.24,21.17\H,24.37,15.89,20.51\H,24.11,15.73,21
 .99\O,17.83,14.76,16.13\H,17.8,15.71,16.29\H,16.92,14.51,15.99\O,16.51
 ,17.22,15.07\H,17.46,17.3,15.08\H,16.31,16.9,14.19\O,19.36,13.64,19.88
 \H,19.62,13.4,20.77\H,20.2,13.79,19.43\O,13.95,19.07,18.68\H,13.93,18.
 88,17.74\H,13.28,19.74,18.8\O,21.17,15.75,15.31\H,21.36,14.97,15.83\H,
 21.98,16.26,15.34\O,23.9,25.85,18.08\H,23.22,25.21,17.87\H,24.7,25.33,
 18.14\O,18.81,26.81,19.74\H,19.21,26.97,18.88\H,19.55,26.62,20.32\O,13
 .82,22.81,22.58\H,14.4,23.2,21.93\H,14.05,23.24,23.4\O,19.89,18.72,26.
 79\H,19.56,17.83,26.71\H,20.84,18.62,26.86\O,15.38,13.98,18.27\H,15.27
 ,14.14,17.33\H,15.55,14.85,18.63\O,17.14,13.88,21.64\H,17.32,13.24,20.
 95\H,17.84,13.75,22.28\O,19.22,17.72,12.51\H,19.05,17.96,13.42\H,18.37
 ,17.79,12.08\O,18.59,16.33,26.53\H,17.69,16.55,26.77\H,18.54,16.09,25.
 61\O,26.97,19.41,20.25\H,27.36,18.82,19.61\H,27.36,19.16,21.09\O,13.94
 ,16.62,23.63\H,14.34,15.97,24.21\H,14.59,17.32,23.57\O,17.25,25.18,25.
 07\H,17.62,25.5,24.25\H,17.11,24.25,24.93\O,24.14,14.04,17.57\H,24.5,1
 4.91,17.75\H,24.34,13.88,16.65\O,13.91,17.74,16.01\H,14.76,17.3,15.91\
 H,14.03,18.58,15.57\O,15.26,19.05,26.19\H,16.01,19.65,26.2\H,15.01,18.
 99,25.27\O,24.08,16.75,14.83\H,24.14,15.81,14.68\H,24.81,17.12,14.34\O
 ,26.58,22.55,16.69\H,27.1,22.11,16.01\H,25.75,22.75,16.26\O,26.96,22.3
 6,23.57\H,27.01,23.15,23.04\H,26.02,22.24,23.73\O,17.81,26.85,22.87\H,
 16.89,26.71,22.63\H,18.26,26.96,22.03\O,24.86,20.59,26.27\H,24.81,20.9
 7,27.15\H,24.66,21.31,25.68\O,19.5,22.02,12.2\H,20.27,21.82,11.67\H,19
 .29,21.2,12.65\O,27.26,16.61,22.46\H,26.43,16.7,21.99\H,27.68,15.84,22
 .07\O,14.78,26.1,18.1\H,14.88,25.42,18.77\H,14.15,25.73,17.48\O,27.43,
 18.48,16.3\H,26.81,18.51,17.03\H,28.29,18.37,16.72\O,18.99,13.24,23.43
 \H,19.89,13.38,23.71\H,18.63,12.63,24.07\O,18.45,12.38,17.42\H,18.27,1
 3.23,17.03\H,18.6,12.56,18.35\O,22.63,18.83,27.07\H,23.27,19.51,26.86\
 H,22.62,18.79,28.02\O,24.35,25.73,22.76\H,23.86,26.54,22.64\H,24.04,25
 .38,23.6\O,22.67,25.27,24.86\H,21.98,25.87,25.14\H,23.12,25.02,25.67\O
 ,15.11,26.81,21.57\H,14.53,27.13,20.87\H,15.31,25.91,21.31\O,20.18,26.
 52,15.19\H,20.51,27.14,14.55\H,20.23,25.67,14.76\O,12.66,15.56,20.93\H
 ,13.58,15.81,20.95\H,12.42,15.45,21.85\O,28.39,21.62,19.29\H,28.41,22.
 03,18.43\H,27.68,20.98,19.24\O,27.49,16.82,18.79\H,26.73,16.45,18.34\H
 ,28.,16.06,19.07\O,19.41,14.38,13.49\H,18.62,14.23,14.01\H,19.95,14.96
 ,14.03\O,13.04,23.91,19.65\H,12.87,23.19,20.26\H,12.75,23.58,18.8\O,24
 .39,17.08,26.21\H,25.27,17.42,26.09\H,23.87,17.84,26.48\O,12.17,20.33,
 22.65\H,12.62,21.17,22.76\H,11.67,20.23,23.46\O,23.55,25.96,14.9\H,24.
 35,26.38,15.22\H,22.94,26.,15.64\O,24.67,12.81,22.15\H,25.43,13.2,22.5
 7\H,24.37,13.48,21.53\O,25.22,14.39,24.5\H,25.89,15.06,24.59\H,24.4,14
 .88,24.42\O,20.98,24.99,13.03\H,20.84,24.05,13.05\H,21.73,25.14,13.61\
 O,20.12,27.96,17.5\H,20.06,27.41,16.71\H,21.06,28.11,17.6\O,12.79,24.1
 5,16.74\H,13.56,23.6,16.62\H,12.06,23.62,16.41\O,18.8,23.11,27.47\H,19
 .65,23.01,27.89\H,18.68,24.05,27.4\O,17.09,27.53,17.51\H,16.34,26.97,1
 7.73\H,17.41,27.85,18.35\O,28.21,20.09,22.51\H,28.25,19.81,23.42\H,27.
 74,20.92,22.53\O,26.88,24.74,22.41\H,25.99,25.09,22.35\H,27.4,25.33,21
 .87\O,16.22,14.26,24.59\H,16.09,13.35,24.33\H,15.7,14.36,25.39\O,11.5,
 21.81,20.62\H,10.65,21.99,21.03\H,11.9,21.15,21.18\O,13.73,20.41,14.6\
 H,13.58,21.32,14.37\H,13.09,19.92,14.08\O,24.6,27.79,20.01\H,25.37,27.
 46,20.47\H,24.32,27.07,19.45\O,26.69,24.69,18.45\H,27.51,24.92,18.89\H
 ,26.97,24.28,17.63\O,11.92,20.65,18.06\H,11.52,21.22,17.4\H,11.59,20.9
 9,18.9\O,21.39,28.48,22.41\H,20.69,27.93,22.77\H,20.93,29.16,21.93\O,2
 0.98,12.84,15.09\H,20.91,11.97,14.7\H,20.15,13.26,14.88\O,18.95,19.72,
 29.31\H,18.26,19.07,29.45\H,19.34,19.48,28.46\O,21.3,22.97,28.42\H,21.
 84,22.29,28.\H,21.63,23.79,28.06\O,13.89,13.13,20.7\H,14.62,13.34,20.1
 2\H,13.44,13.97,20.83\O,16.17,16.88,27.45\H,16.39,17.1,28.36\H,15.75,1
 7.67,27.11\O,26.09,13.17,19.03\H,26.57,12.76,18.31\H,25.19,13.25,18.71
 \O,24.84,24.11,13.28\H,25.4,24.88,13.26\H,24.06,24.39,13.75\O,16.22,21
 .33,28.19\H,17.14,21.55,28.04\H,16.24,20.44,28.54\O,26.32,18.09,13.92\
 H,26.61,18.83,13.38\H,26.75,18.22,14.76\O,26.04,21.71,13.71\H,25.64,22
 .57,13.75\H,25.97,21.44,12.8\O,16.81,18.67,11.64\H,16.25,19.38,11.95\H
 ,16.39,18.36,10.84\O,22.03,12.22,23.85\H,22.95,12.47,23.73\H,21.8,11.7
 8,23.03\O,19.32,28.74,24.42\H,19.04,27.84,24.28\H,18.89,29.24,23.73\O,
 17.6,28.02,15.\H,18.28,27.36,15.14\H,17.18,28.11,15.85\O,16.69,22.38,1
 1.3\H,16.2,22.83,11.98\H,17.57,22.3,11.65\O,14.8,14.21,15.44\H,13.9,14
 .51,15.44\H,14.9,13.73,14.62\O,21.18,17.76,10.59\H,20.82,17.26,9.86\H,
 20.48,17.75,11.25\O,19.84,15.69,28.8\H,19.45,15.65,27.92\H,20.78,15.67
 ,28.64\O,22.35,14.46,12.27\H,21.6,14.85,12.71\H,23.06,14.52,12.9\O,23.
 82,13.8,14.59\H,24.33,13.48,13.85\H,23.01,13.28,14.56\O,12.44,15.32,15
 .85\H,11.52,15.44,15.64\H,12.76,16.2,16.07\O,26.75,18.75,25.95\H,27.71
 ,18.74,25.91\H,26.54,19.56,26.41\O,14.45,23.36,26.95\H,14.83,22.49,27.
 1\H,14.15,23.64,27.81\O,28.26,20.92,15.22\H,28.09,20.1,15.67\H,27.53,2
 1.,14.59\O,15.29,23.85,12.82\H,15.3,24.8,12.68\H,14.63,23.72,13.5\O,11
 .61,25.39,21.49\H,12.04,25.51,22.33\H,12.23,24.87,20.97\O,10.51,17.84,
 20.64\H,11.19,17.19,20.52\H,10.3,18.14,19.75\O,18.9,24.68,11.2\H,19.51
 ,25.23,11.69\H,18.95,23.82,11.62\O,15.62,16.29,12.72\H,15.9,16.99,12.1
 3\H,14.66,16.34,12.72\O,16.15,25.57,27.47\H,16.35,25.54,26.54\H,15.79,
 24.7,27.67\O,17.88,15.23,11.45\H,18.78,15.06,11.73\H,17.43,15.53,12.24
 \O,27.7,14.24,20.96\H,27.1,13.97,20.27\H,28.39,13.57,20.95\O,15.23,10.
 98,18.88\H,14.36,11.08,18.5\H,15.57,11.87,18.91\\Version=ES64L-G09RevE
 .01\HF=-9773.370685\RMSD=9.516e-10\RMSF=1.066e-02\Dipole=5.3089426,-1.
 581998,-4.035298\Quadrupole=534.6628671,-248.0418698,-286.6209973,-125
 7.7754696,-1298.1391407,-1603.6519043\PG=C01 [X(Br1H256O128)]\\@


 Children are likely to live up to what you believe of them.
 -- Lady Bird Johnson
 Job cpu time:       5 days 17 hours 25 minutes 57.2 seconds.
 File lengths (MBytes):  RWF=   7285 Int=      0 D2E=      0 Chk=   2411 Scr=      1
 Normal termination of Gaussian 09 at Sun May  6 20:18:59 2018.
