 Entering Gaussian System, Link 0=/cm/shared/gaussian/g09.e01/intel64-sandybridge/g09/g09
 Initial command:
 /cm/shared/gaussian/g09.e01/intel64-sandybridge/g09/l1.exe "/local/scratch/m.peluso/128_wat/Gau-42411.inp" -scrdir="/local/scratch/m.peluso/128_wat/"
 Entering Link 1 = /cm/shared/gaussian/g09.e01/intel64-sandybridge/g09/l1.exe PID=     42412.
  
 Copyright (c) 1988,1990,1992,1993,1995,1998,2003,2009,2015,
            Gaussian, Inc.  All Rights Reserved.
  
 This is part of the Gaussian(R) 09 program.  It is based on
 the Gaussian(R) 03 system (copyright 2003, Gaussian, Inc.),
 the Gaussian(R) 98 system (copyright 1998, Gaussian, Inc.),
 the Gaussian(R) 94 system (copyright 1995, Gaussian, Inc.),
 the Gaussian 92(TM) system (copyright 1992, Gaussian, Inc.),
 the Gaussian 90(TM) system (copyright 1990, Gaussian, Inc.),
 the Gaussian 88(TM) system (copyright 1988, Gaussian, Inc.),
 the Gaussian 86(TM) system (copyright 1986, Carnegie Mellon
 University), and the Gaussian 82(TM) system (copyright 1983,
 Carnegie Mellon University). Gaussian is a federally registered
 trademark of Gaussian, Inc.
  
 This software contains proprietary and confidential information,
 including trade secrets, belonging to Gaussian, Inc.
  
 This software is provided under written license and may be
 used, copied, transmitted, or stored only in accord with that
 written license.
  
 The following legend is applicable only to US Government
 contracts under FAR:
  
                    RESTRICTED RIGHTS LEGEND
  
 Use, reproduction and disclosure by the US Government is
 subject to restrictions as set forth in subparagraphs (a)
 and (c) of the Commercial Computer Software - Restricted
 Rights clause in FAR 52.227-19.
  
 Gaussian, Inc.
 340 Quinnipiac St., Bldg. 40, Wallingford CT 06492
  
  
 ---------------------------------------------------------------
 Warning -- This program may not be used in any manner that
 competes with the business of Gaussian, Inc. or will provide
 assistance to any competitor of Gaussian, Inc.  The licensee
 of this program is prohibited from giving any competitor of
 Gaussian, Inc. access to this program.  By using this program,
 the user acknowledges that Gaussian, Inc. is engaged in the
 business of creating and licensing software in the field of
 computational chemistry and represents and warrants to the
 licensee that it is not a competitor of Gaussian, Inc. and that
 it will not use this program in any manner prohibited above.
 ---------------------------------------------------------------
  

 Cite this work as:
 Gaussian 09, Revision E.01,
 M. J. Frisch, G. W. Trucks, H. B. Schlegel, G. E. Scuseria, 
 M. A. Robb, J. R. Cheeseman, G. Scalmani, V. Barone, B. Mennucci, 
 G. A. Petersson, H. Nakatsuji, M. Caricato, X. Li, H. P. Hratchian, 
 A. F. Izmaylov, J. Bloino, G. Zheng, J. L. Sonnenberg, M. Hada, 
 M. Ehara, K. Toyota, R. Fukuda, J. Hasegawa, M. Ishida, T. Nakajima, 
 Y. Honda, O. Kitao, H. Nakai, T. Vreven, J. A. Montgomery, Jr., 
 J. E. Peralta, F. Ogliaro, M. Bearpark, J. J. Heyd, E. Brothers, 
 K. N. Kudin, V. N. Staroverov, T. Keith, R. Kobayashi, J. Normand, 
 K. Raghavachari, A. Rendell, J. C. Burant, S. S. Iyengar, J. Tomasi, 
 M. Cossi, N. Rega, J. M. Millam, M. Klene, J. E. Knox, J. B. Cross, 
 V. Bakken, C. Adamo, J. Jaramillo, R. Gomperts, R. E. Stratmann, 
 O. Yazyev, A. J. Austin, R. Cammi, C. Pomelli, J. W. Ochterski, 
 R. L. Martin, K. Morokuma, V. G. Zakrzewski, G. A. Voth, 
 P. Salvador, J. J. Dannenberg, S. Dapprich, A. D. Daniels, 
 O. Farkas, J. B. Foresman, J. V. Ortiz, J. Cioslowski, 
 and D. J. Fox, Gaussian, Inc., Wallingford CT, 2013.
 
 ******************************************
 Gaussian 09:  ES64L-G09RevE.01 30-Nov-2015
                 5-May-2018 
 ******************************************
 %Mem=110GB
 %NProcShared=64
 Will use up to   64 processors via shared memory.
 %chk=snap49.chk
 ----------------------------------------------
 #p PBE1PBE/cc-pvDZ force Counterpoise=2 noSymm
 ----------------------------------------------
 1/10=7,30=1,38=1,62=2/1,3;
 2/12=2,15=1,17=6,18=5,40=1/2;
 1/10=7,30=1,38=1,53=2,62=2,63=101/22;
 3/5=16,11=2,16=1,25=1,30=1,71=1,74=-13/1,2,3;
 4//1;
 5/5=2,38=5/2;
 6/7=2,8=2,9=2,10=2,28=1/1;
 7/7=1,29=1,30=1,33=-1/1,2,3,16;
 1/10=7,30=1,53=2,62=2,63=101/22;
 3/5=7,6=11,11=2,16=1,25=1,30=1,71=1,74=-13,82=7/1,2,3;
 4//1;
 5/5=2,38=5/2;
 6/7=2,8=2,9=2,10=2,28=1/1;
 7/7=1,29=1,30=1,33=-1/1,2,3,16;
 1/10=7,30=1,53=2,62=2,63=101/22(-5);
 7/9=1,29=1,44=-1/16;
 1/10=7,30=1,62=2/3;
 99//99;
 Leave Link    1 at Sat May  5 07:40:20 2018, MaxMem= 14763950080 cpu:         4.7
 (Enter /cm/shared/gaussian/g09.e01/intel64-sandybridge/g09/l101.exe)
 ---------------------------------------
 forces on chloride comput - NWATER: 128
 ---------------------------------------
 Symbolic Z-matrix:
 Charge = -1 Multiplicity = 1 in supermolecule
 Charge = -1 Multiplicity = 1 in fragment      1.
 Charge =  0 Multiplicity = 1 in fragment      2.
 Br(Fragment=1)        20.       20.       20. 
 O(Fragment=2)         17.64     21.92     21.17 
 H(Fragment=2)         18.04     22.77     21.34 
 H(Fragment=2)         18.32     21.42     20.72 
 O(Fragment=2)         18.13     21.24     17.63 
 H(Fragment=2)         17.94     22.15     17.83 
 H(Fragment=2)         18.56     20.9      18.42 
 O(Fragment=2)         21.81     21.37     17.73 
 H(Fragment=2)         21.24     21.35     18.49 
 H(Fragment=2)         22.7      21.28     18.09 
 O(Fragment=2)         17.77     18.46     21.98 
 H(Fragment=2)         18.44     18.59     21.31 
 H(Fragment=2)         18.05     19.02     22.7 
 O(Fragment=2)         20.92     22.26     22.74 
 H(Fragment=2)         21.82     22.56     22.68 
 H(Fragment=2)         20.84     21.59     22.05 
 O(Fragment=2)         23.3      18.54     18.69 
 H(Fragment=2)         23.87     19.3      18.79 
 H(Fragment=2)         22.43     18.86     18.92 
 O(Fragment=2)         17.52     16.69     18.77 
 H(Fragment=2)         18.24     17.3      18.95 
 H(Fragment=2)         17.91     16.02     18.21 
 O(Fragment=2)         23.67     19.2      22.08 
 H(Fragment=2)         23.53     18.27     21.92 
 H(Fragment=2)         23.04     19.64     21.51 
 O(Fragment=2)         19.65     17.92     15.99 
 H(Fragment=2)         19.65     18.31     16.87 
 H(Fragment=2)         19.13     18.52     15.46 
 O(Fragment=2)         23.77     21.29     19.36 
 H(Fragment=2)         23.48     21.59     20.23 
 H(Fragment=2)         24.27     22.03     19.02 
 O(Fragment=2)         19.99     21.63     15.29 
 H(Fragment=2)         20.36     21.44     16.15 
 H(Fragment=2)         19.07     21.4      15.37 
 O(Fragment=2)         15.65     18.77     19.65 
 H(Fragment=2)         15.93     19.13     20.49 
 H(Fragment=2)         16.31     18.11     19.43 
 O(Fragment=2)         20.22     20.22     24.68 
 H(Fragment=2)         20.27     20.95     24.07 
 H(Fragment=2)         19.32     19.91     24.61 
 O(Fragment=2)         17.79     19.78     15.52 
 H(Fragment=2)         17.95     20.28     16.32 
 H(Fragment=2)         16.87     19.96     15.3 
 O(Fragment=2)         20.26     24.31     19.82 
 H(Fragment=2)         21.2      24.26     20. 
 H(Fragment=2)         19.86     24.34     20.69 
 O(Fragment=2)         19.       24.21     22.28 
 H(Fragment=2)         19.74     23.62     22.37 
 H(Fragment=2)         19.05     24.78     23.06 
 O(Fragment=2)         20.33     17.15     23.34 
 H(Fragment=2)         21.03     17.57     23.84 
 H(Fragment=2)         20.74     16.37     22.96 
 O(Fragment=2)         18.07     24.05     18.45 
 H(Fragment=2)         17.94     24.69     17.75 
 H(Fragment=2)         18.81     24.39     18.95 
 O(Fragment=2)         15.02     21.17     21.64 
 H(Fragment=2)         15.31     20.97     22.53 
 H(Fragment=2)         15.77     21.58     21.23 
 O(Fragment=2)         23.26     23.12     21.39 
 H(Fragment=2)         23.51     23.78     20.74 
 H(Fragment=2)         23.54     23.49     22.22 
 O(Fragment=2)         21.14     24.26     16.42 
 H(Fragment=2)         21.       23.98     15.51 
 H(Fragment=2)         20.91     23.49     16.94 
 O(Fragment=2)         23.1      16.25     17.72 
 H(Fragment=2)         22.8      16.43     16.83 
 H(Fragment=2)         23.24     17.12     18.1 
 O(Fragment=2)         17.75     15.57     22.03 
 H(Fragment=2)         17.17     16.17     21.57 
 H(Fragment=2)         18.43     16.14     22.4 
 O(Fragment=2)         22.22     18.63     24.58 
 H(Fragment=2)         22.82     18.92     23.9 
 H(Fragment=2)         21.5      19.26     24.54 
 O(Fragment=2)         23.86     16.51     21.14 
 H(Fragment=2)         23.43     16.59     20.29 
 H(Fragment=2)         23.6      15.64     21.45 
 O(Fragment=2)         15.51     23.07     18.54 
 H(Fragment=2)         15.37     22.13     18.41 
 H(Fragment=2)         16.47     23.16     18.58 
 O(Fragment=2)         20.73     15.05     18.13 
 H(Fragment=2)         21.12     14.18     18.24 
 H(Fragment=2)         21.48     15.65     18.1 
 O(Fragment=2)         23.18     21.19     15.01 
 H(Fragment=2)         22.61     21.35     15.76 
 H(Fragment=2)         23.01     20.28     14.77 
 O(Fragment=2)         17.48     19.95     24.64 
 H(Fragment=2)         17.5      20.78     25.11 
 H(Fragment=2)         16.56     19.85     24.38 
 O(Fragment=2)         14.61     20.09     17.63 
 H(Fragment=2)         14.82     19.6      18.42 
 H(Fragment=2)         14.97     19.56     16.92 
 O(Fragment=2)         18.94     17.58     25.82 
 H(Fragment=2)         18.62     18.21     26.47 
 H(Fragment=2)         19.28     18.12     25.11 
 O(Fragment=2)         21.87     16.27     15.46 
 H(Fragment=2)         21.38     15.61     15.94 
 H(Fragment=2)         21.28     17.02     15.38 
 O(Fragment=2)         16.34     25.06     22.34 
 H(Fragment=2)         16.33     25.34     23.25 
 H(Fragment=2)         17.19     24.63     22.23 
 O(Fragment=2)         24.82     23.31     17.98 
 H(Fragment=2)         25.41     23.71     18.62 
 H(Fragment=2)         25.32     23.34     17.16 
 O(Fragment=2)         13.4      19.08     21.75 
 H(Fragment=2)         13.93     19.86     21.89 
 H(Fragment=2)         13.12     19.15     20.83 
 O(Fragment=2)         16.92     16.51     14.8 
 H(Fragment=2)         16.23     16.68     15.45 
 H(Fragment=2)         17.47     17.29     14.83 
 O(Fragment=2)         23.67     25.35     20.03 
 H(Fragment=2)         23.59     25.42     19.08 
 H(Fragment=2)         23.31     26.17     20.36 
 O(Fragment=2)         26.82     17.17     19.51 
 H(Fragment=2)         25.89     17.27     19.72 
 H(Fragment=2)         27.27     17.32     20.34 
 O(Fragment=2)         19.46     13.57     22.82 
 H(Fragment=2)         18.92     14.33     23.05 
 H(Fragment=2)         20.08     13.51     23.55 
 O(Fragment=2)         23.36     25.53     17.21 
 H(Fragment=2)         23.89     24.8      17.53 
 H(Fragment=2)         22.6      25.1      16.81 
 O(Fragment=2)         22.12     21.25     26.95 
 H(Fragment=2)         22.03     20.66     26.2 
 H(Fragment=2)         23.01     21.61     26.87 
 O(Fragment=2)         15.49     15.81     16.92 
 H(Fragment=2)         16.01     15.01     16.89 
 H(Fragment=2)         15.3      15.94     17.85 
 O(Fragment=2)         21.64     22.94     13.71 
 H(Fragment=2)         22.36     22.4      14.05 
 H(Fragment=2)         20.85     22.46     13.93 
 O(Fragment=2)         15.94     13.94     19.38 
 H(Fragment=2)         15.98     14.76     19.88 
 H(Fragment=2)         16.76     13.5      19.57 
 O(Fragment=2)         22.72     13.67     20.86 
 H(Fragment=2)         22.89     12.97     21.49 
 H(Fragment=2)         21.78     13.62     20.69 
 O(Fragment=2)         20.69     26.96     18.45 
 H(Fragment=2)         20.79     26.28     17.79 
 H(Fragment=2)         21.05     27.75     18.04 
 O(Fragment=2)         22.23     14.85     23.67 
 H(Fragment=2)         22.04     14.24     24.38 
 H(Fragment=2)         23.18     14.95     23.67 
 O(Fragment=2)         17.6      14.47     16.3 
 H(Fragment=2)         18.54     14.44     16.49 
 H(Fragment=2)         17.52     15.13     15.62 
 O(Fragment=2)         14.67     19.42     24.09 
 H(Fragment=2)         13.92     19.21     23.53 
 H(Fragment=2)         14.62     18.79     24.8 
 O(Fragment=2)         18.52     12.98     20.2 
 H(Fragment=2)         18.59     12.08     20.5 
 H(Fragment=2)         18.43     13.5      21.01 
 O(Fragment=2)         23.91     23.64     24.21 
 H(Fragment=2)         24.33     23.2      24.94 
 H(Fragment=2)         23.21     24.15     24.6 
 O(Fragment=2)         26.65     17.64     22.14 
 H(Fragment=2)         26.33     18.54     22.11 
 H(Fragment=2)         25.87     17.11     22.27 
 O(Fragment=2)         23.31     13.57     18.16 
 H(Fragment=2)         23.19     14.39     17.69 
 H(Fragment=2)         23.29     13.81     19.09 
 O(Fragment=2)         14.25     24.61     20.71 
 H(Fragment=2)         15.13     24.71     21.09 
 H(Fragment=2)         14.35     23.95     20.03 
 O(Fragment=2)         17.62     15.35     25.34 
 H(Fragment=2)         16.72     15.27     25.66 
 H(Fragment=2)         17.8      16.29     25.38 
 O(Fragment=2)         19.77     27.39     20.87 
 H(Fragment=2)         18.83     27.53     20.85 
 H(Fragment=2)         19.98     26.99     20.02 
 O(Fragment=2)         14.22     16.19     22.7 
 H(Fragment=2)         14.08     15.98     23.63 
 H(Fragment=2)         14.14     17.14     22.65 
 O(Fragment=2)         17.6      25.58     16.26 
 H(Fragment=2)         17.57     26.53     16.21 
 H(Fragment=2)         18.32     25.34     15.67 
 O(Fragment=2)         20.98     17.85     12.79 
 H(Fragment=2)         20.41     17.08     12.72 
 H(Fragment=2)         20.39     18.55     13.08 
 O(Fragment=2)         20.18     14.64     25.7 
 H(Fragment=2)         19.27     14.79     25.45 
 H(Fragment=2)         20.66     15.38     25.33 
 O(Fragment=2)         26.56     21.96     23.93 
 H(Fragment=2)         25.64     21.72     23.93 
 H(Fragment=2)         26.62     22.73     24.49 
 O(Fragment=2)         26.06     21.47     15.5 
 H(Fragment=2)         25.14     21.74     15.42 
 H(Fragment=2)         26.13     20.72     14.9 
 O(Fragment=2)         21.94     25.96     24.28 
 H(Fragment=2)         21.04     25.63     24.23 
 H(Fragment=2)         21.9      26.81     23.83 
 O(Fragment=2)         18.2      22.91     12.95 
 H(Fragment=2)         17.37     23.37     13.13 
 H(Fragment=2)         18.75     23.12     13.71 
 O(Fragment=2)         12.52     21.48     17.42 
 H(Fragment=2)         12.64     22.31     17.88 
 H(Fragment=2)         13.37     21.05     17.49 
 O(Fragment=2)         16.15     13.51     22.96 
 H(Fragment=2)         15.82     14.1      23.64 
 H(Fragment=2)         16.91     13.96     22.59 
 O(Fragment=2)         22.8      17.01     27.13 
 H(Fragment=2)         22.35     17.5      26.45 
 H(Fragment=2)         23.66     16.8      26.75 
 O(Fragment=2)         19.19     25.67     24.58 
 H(Fragment=2)         18.59     25.2      25.16 
 H(Fragment=2)         18.93     26.59     24.66 
 O(Fragment=2)         14.11     24.57     16.47 
 H(Fragment=2)         14.92     24.49     16.97 
 H(Fragment=2)         13.42     24.39     17.1 
 O(Fragment=2)         19.38     21.35     27.84 
 H(Fragment=2)         20.19     21.34     27.33 
 H(Fragment=2)         18.82     21.98     27.37 
 O(Fragment=2)         18.95     19.6      12.51 
 H(Fragment=2)         18.17     20.12     12.72 
 H(Fragment=2)         19.03     19.65     11.56 
 O(Fragment=2)         27.55     22.56     21.45 
 H(Fragment=2)         27.09     22.21     22.21 
 H(Fragment=2)         26.88     23.       20.94 
 O(Fragment=2)         14.4      18.59     15.11 
 H(Fragment=2)         13.48     18.49     14.85 
 H(Fragment=2)         14.81     19.07     14.39 
 O(Fragment=2)         19.56     11.84     17.93 
 H(Fragment=2)         18.93     11.17     18.21 
 H(Fragment=2)         19.42     12.57     18.53 
 O(Fragment=2)         26.39     24.57     20. 
 H(Fragment=2)         27.15     25.14     20.16 
 H(Fragment=2)         25.64     25.14     20.13 
 O(Fragment=2)         25.02     15.97     14.54 
 H(Fragment=2)         25.38     15.26     15.07 
 H(Fragment=2)         24.09     16.       14.77 
 O(Fragment=2)         16.91     27.65     21.41 
 H(Fragment=2)         16.47     26.81     21.24 
 H(Fragment=2)         16.6      27.92     22.27 
 O(Fragment=2)         11.93     19.87     19.44 
 H(Fragment=2)         11.45     20.69     19.54 
 H(Fragment=2)         12.32     19.93     18.57 
 O(Fragment=2)         23.73     18.63     13.19 
 H(Fragment=2)         24.03     17.83     13.62 
 H(Fragment=2)         22.97     18.35     12.66 
 O(Fragment=2)         25.73     18.7      25.21 
 H(Fragment=2)         25.68     17.76     25.34 
 H(Fragment=2)         26.51     18.82     24.67 
 O(Fragment=2)         24.64     21.12     26.42 
 H(Fragment=2)         25.21     21.38     27.14 
 H(Fragment=2)         25.05     20.32     26.08 
 O(Fragment=2)         16.94     24.21     25.97 
 H(Fragment=2)         16.41     24.97     26.23 
 H(Fragment=2)         16.43     23.45     26.26 
 O(Fragment=2)         28.11     19.23     17.88 
 H(Fragment=2)         27.44     19.09     17.21 
 H(Fragment=2)         28.       18.49     18.49 
 O(Fragment=2)         24.98     26.63     22.65 
 H(Fragment=2)         24.11     26.28     22.87 
 H(Fragment=2)         24.81     27.25     21.94 
 O(Fragment=2)         26.65     14.15     19.22 
 H(Fragment=2)         26.37     15.02     19.5 
 H(Fragment=2)         26.09     13.54     19.71 
 O(Fragment=2)         19.45     25.73     14.29 
 H(Fragment=2)         20.4      25.73     14.21 
 H(Fragment=2)         19.14     26.12     13.47 
 O(Fragment=2)         15.5      23.53     14.17 
 H(Fragment=2)         15.46     24.47     13.96 
 H(Fragment=2)         14.69     23.36     14.64 
 O(Fragment=2)         20.58     13.11     15.49 
 H(Fragment=2)         20.21     12.71     16.28 
 H(Fragment=2)         20.51     12.43     14.82 
 O(Fragment=2)         15.6      20.84     13.11 
 H(Fragment=2)         15.06     21.62     13.23 
 H(Fragment=2)         14.97     20.13     13.01 
 O(Fragment=2)         19.       15.9      28.14 
 H(Fragment=2)         19.15     16.45     27.37 
 H(Fragment=2)         19.09     15.01     27.81 
 O(Fragment=2)         24.2      23.9      13.54 
 H(Fragment=2)         23.25     24.06     13.56 
 H(Fragment=2)         24.57     24.75     13.29 
 O(Fragment=2)         21.35     28.16     22.99 
 H(Fragment=2)         21.87     28.95     22.92 
 H(Fragment=2)         21.09     27.95     22.09 
 O(Fragment=2)         21.95     14.44     12.91 
 H(Fragment=2)         21.46     15.01     13.51 
 H(Fragment=2)         21.54     13.59     13. 
 O(Fragment=2)         14.79     19.36     26.92 
 H(Fragment=2)         15.17     20.24     26.95 
 H(Fragment=2)         15.3      18.85     27.56 
 O(Fragment=2)         28.22     19.89     23.76 
 H(Fragment=2)         28.48     19.73     22.85 
 H(Fragment=2)         27.6      20.62     23.71 
 O(Fragment=2)         27.99     22.53     17.28 
 H(Fragment=2)         28.62     21.9      17.63 
 H(Fragment=2)         27.51     22.06     16.6 
 O(Fragment=2)         25.67     14.74     23.57 
 H(Fragment=2)         25.94     13.82     23.66 
 H(Fragment=2)         26.48     15.23     23.71 
 O(Fragment=2)         12.21     15.06     21.26 
 H(Fragment=2)         11.98     15.46     20.43 
 H(Fragment=2)         12.85     15.67     21.65 
 O(Fragment=2)         12.6      16.16     16.14 
 H(Fragment=2)         13.37     16.61     15.81 
 H(Fragment=2)         11.86     16.56     15.68 
 O(Fragment=2)         12.42     23.19     24.48 
 H(Fragment=2)         13.14     22.56     24.42 
 H(Fragment=2)         11.7      22.68     24.85 
 O(Fragment=2)         11.92     24.31     22.16 
 H(Fragment=2)         12.76     24.32     21.7 
 H(Fragment=2)         12.14     24.05     23.05 
 O(Fragment=2)         23.21     12.66     15.62 
 H(Fragment=2)         23.59     13.04     16.41 
 H(Fragment=2)         22.29     12.9      15.65 
 O(Fragment=2)         16.45     15.       12.55 
 H(Fragment=2)         16.07     15.64     11.95 
 H(Fragment=2)         16.75     15.52     13.3 
 O(Fragment=2)         23.52     28.02     19.93 
 H(Fragment=2)         22.83     28.38     19.37 
 H(Fragment=2)         24.16     27.66     19.31 
 O(Fragment=2)         25.95     27.1      18.5 
 H(Fragment=2)         25.86     27.35     17.58 
 H(Fragment=2)         26.03     26.15     18.48 
 O(Fragment=2)         13.99     13.46     17.21 
 H(Fragment=2)         13.91     14.4      17.04 
 H(Fragment=2)         14.44     13.42     18.06 
 O(Fragment=2)         26.44     19.55     13.24 
 H(Fragment=2)         26.56     20.34     12.71 
 H(Fragment=2)         25.5      19.36     13.16 
 O(Fragment=2)         18.78     19.2      29.21 
 H(Fragment=2)         19.13     19.97     28.76 
 H(Fragment=2)         19.11     19.28     30.11 
 O(Fragment=2)         15.34     22.27     27.13 
 H(Fragment=2)         15.55     22.53     28.02 
 H(Fragment=2)         14.4      22.41     27.05 
 O(Fragment=2)         10.59     18.32     21.11 
 H(Fragment=2)         10.51     18.97     20.41 
 H(Fragment=2)         11.48     17.97     21.01 
 O(Fragment=2)         22.6      20.94     10.79 
 H(Fragment=2)         22.63     21.35     11.65 
 H(Fragment=2)         23.04     21.55     10.2 
 O(Fragment=2)         12.22     21.61     14.78 
 H(Fragment=2)         12.03     22.54     14.68 
 H(Fragment=2)         12.39     21.5      15.72 
 O(Fragment=2)         20.67     23.3      10.91 
 H(Fragment=2)         21.07     23.1      11.76 
 H(Fragment=2)         20.84     24.23     10.78 
 O(Fragment=2)         19.16     16.       12.12 
 H(Fragment=2)         18.3      15.59     12.27 
 H(Fragment=2)         19.4      15.73     11.23 
 O(Fragment=2)         18.82     10.75     21.86 
 H(Fragment=2)         17.91     10.59     22.1 
 H(Fragment=2)         19.08     11.5      22.39 
 O(Fragment=2)         22.56     26.71     26.69 
 H(Fragment=2)         22.29     26.26     25.89 
 H(Fragment=2)         22.18     26.19     27.4 
 O(Fragment=2)         25.24     16.33     26.2 
 H(Fragment=2)         25.14     15.39     26.03 
 H(Fragment=2)         25.81     16.37     26.97 
 O(Fragment=2)         16.89     11.51     16.48 
 H(Fragment=2)         16.86     12.46     16.41 
 H(Fragment=2)         17.1      11.21     15.59 
 O(Fragment=2)         16.79     28.31     18.06 
 H(Fragment=2)         16.63     28.24     19. 
 H(Fragment=2)         16.02     27.89     17.66 
 O(Fragment=2)         22.19     19.89     29.54 
 H(Fragment=2)         22.07     20.37     28.72 
 H(Fragment=2)         21.66     19.1      29.44 
 O(Fragment=2)         22.71     10.76     19.07 
 H(Fragment=2)         21.85     10.9      18.68 
 H(Fragment=2)         23.11     11.63     19.12 
 O(Fragment=2)         27.44     17.08     15.22 
 H(Fragment=2)         26.63     16.65     14.94 
 H(Fragment=2)         27.39     17.96     14.83 
 O(Fragment=2)         28.09     16.19     24.19 
 H(Fragment=2)         28.84     16.75     24.41 
 H(Fragment=2)         27.56     16.72     23.6 
 O(Fragment=2)         13.64     12.45     20.68 
 H(Fragment=2)         14.45     12.94     20.54 
 H(Fragment=2)         13.1      13.03     21.22 
 O(Fragment=2)         26.86     24.53     16. 
 H(Fragment=2)         27.34     23.98     16.62 
 H(Fragment=2)         26.94     24.08     15.16 
 O(Fragment=2)         17.81     21.16     10.6 
 H(Fragment=2)         18.7      20.9      10.35 
 H(Fragment=2)         17.92     21.69     11.39 
 O(Fragment=2)         13.61     16.73     25.54 
 H(Fragment=2)         12.67     16.59     25.63 
 H(Fragment=2)         13.86     17.25     26.3 
 O(Fragment=2)         28.98     19.39     21.19 
 H(Fragment=2)         29.6      18.68     21. 
 H(Fragment=2)         29.11     20.02     20.48 
 
 NAtoms=    385 NQM=      385 NQMF=       0 NMMI=      0 NMMIF=      0
                NMic=       0 NMicF=      0.
                    Isotopes and Nuclear Properties:
 (Nuclear quadrupole moments (NQMom) in fm**2, nuclear magnetic moments (NMagM)
  in nuclear magnetons)

  Atom         1           2           3           4           5           6           7           8           9          10
 IAtWgt=          79          16           1           1          16           1           1          16           1           1
 AtmWgt=  78.9183361  15.9949146   1.0078250   1.0078250  15.9949146   1.0078250   1.0078250  15.9949146   1.0078250   1.0078250
 NucSpn=           3           0           1           1           0           1           1           0           1           1
 AtZEff=   0.0000000   0.0000000   0.0000000   0.0000000   0.0000000   0.0000000   0.0000000   0.0000000   0.0000000   0.0000000
 NQMom=   31.3000000   0.0000000   0.0000000   0.0000000   0.0000000   0.0000000   0.0000000   0.0000000   0.0000000   0.0000000
 NMagM=    2.1063990   0.0000000   2.7928460   2.7928460   0.0000000   2.7928460   2.7928460   0.0000000   2.7928460   2.7928460
 AtZNuc=  35.0000000   8.0000000   1.0000000   1.0000000   8.0000000   1.0000000   1.0000000   8.0000000   1.0000000   1.0000000

  Atom        11          12          13          14          15          16          17          18          19          20
 IAtWgt=          16           1           1          16           1           1          16           1           1          16
 AtmWgt=  15.9949146   1.0078250   1.0078250  15.9949146   1.0078250   1.0078250  15.9949146   1.0078250   1.0078250  15.9949146
 NucSpn=           0           1           1           0           1           1           0           1           1           0
 AtZEff=   0.0000000   0.0000000   0.0000000   0.0000000   0.0000000   0.0000000   0.0000000   0.0000000   0.0000000   0.0000000
 NQMom=    0.0000000   0.0000000   0.0000000   0.0000000   0.0000000   0.0000000   0.0000000   0.0000000   0.0000000   0.0000000
 NMagM=    0.0000000   2.7928460   2.7928460   0.0000000   2.7928460   2.7928460   0.0000000   2.7928460   2.7928460   0.0000000
 AtZNuc=   8.0000000   1.0000000   1.0000000   8.0000000   1.0000000   1.0000000   8.0000000   1.0000000   1.0000000   8.0000000

  Atom        21          22          23          24          25          26          27          28          29          30
 IAtWgt=           1           1          16           1           1          16           1           1          16           1
 AtmWgt=   1.0078250   1.0078250  15.9949146   1.0078250   1.0078250  15.9949146   1.0078250   1.0078250  15.9949146   1.0078250
 NucSpn=           1           1           0           1           1           0           1           1           0           1
 AtZEff=   0.0000000   0.0000000   0.0000000   0.0000000   0.0000000   0.0000000   0.0000000   0.0000000   0.0000000   0.0000000
 NQMom=    0.0000000   0.0000000   0.0000000   0.0000000   0.0000000   0.0000000   0.0000000   0.0000000   0.0000000   0.0000000
 NMagM=    2.7928460   2.7928460   0.0000000   2.7928460   2.7928460   0.0000000   2.7928460   2.7928460   0.0000000   2.7928460
 AtZNuc=   1.0000000   1.0000000   8.0000000   1.0000000   1.0000000   8.0000000   1.0000000   1.0000000   8.0000000   1.0000000

  Atom        31          32          33          34          35          36          37          38          39          40
 IAtWgt=           1          16           1           1          16           1           1          16           1           1
 AtmWgt=   1.0078250  15.9949146   1.0078250   1.0078250  15.9949146   1.0078250   1.0078250  15.9949146   1.0078250   1.0078250
 NucSpn=           1           0           1           1           0           1           1           0           1           1
 AtZEff=   0.0000000   0.0000000   0.0000000   0.0000000   0.0000000   0.0000000   0.0000000   0.0000000   0.0000000   0.0000000
 NQMom=    0.0000000   0.0000000   0.0000000   0.0000000   0.0000000   0.0000000   0.0000000   0.0000000   0.0000000   0.0000000
 NMagM=    2.7928460   0.0000000   2.7928460   2.7928460   0.0000000   2.7928460   2.7928460   0.0000000   2.7928460   2.7928460
 AtZNuc=   1.0000000   8.0000000   1.0000000   1.0000000   8.0000000   1.0000000   1.0000000   8.0000000   1.0000000   1.0000000

  Atom        41          42          43          44          45          46          47          48          49          50
 IAtWgt=          16           1           1          16           1           1          16           1           1          16
 AtmWgt=  15.9949146   1.0078250   1.0078250  15.9949146   1.0078250   1.0078250  15.9949146   1.0078250   1.0078250  15.9949146
 NucSpn=           0           1           1           0           1           1           0           1           1           0
 AtZEff=   0.0000000   0.0000000   0.0000000   0.0000000   0.0000000   0.0000000   0.0000000   0.0000000   0.0000000   0.0000000
 NQMom=    0.0000000   0.0000000   0.0000000   0.0000000   0.0000000   0.0000000   0.0000000   0.0000000   0.0000000   0.0000000
 NMagM=    0.0000000   2.7928460   2.7928460   0.0000000   2.7928460   2.7928460   0.0000000   2.7928460   2.7928460   0.0000000
 AtZNuc=   8.0000000   1.0000000   1.0000000   8.0000000   1.0000000   1.0000000   8.0000000   1.0000000   1.0000000   8.0000000

  Atom        51          52          53          54          55          56          57          58          59          60
 IAtWgt=           1           1          16           1           1          16           1           1          16           1
 AtmWgt=   1.0078250   1.0078250  15.9949146   1.0078250   1.0078250  15.9949146   1.0078250   1.0078250  15.9949146   1.0078250
 NucSpn=           1           1           0           1           1           0           1           1           0           1
 AtZEff=   0.0000000   0.0000000   0.0000000   0.0000000   0.0000000   0.0000000   0.0000000   0.0000000   0.0000000   0.0000000
 NQMom=    0.0000000   0.0000000   0.0000000   0.0000000   0.0000000   0.0000000   0.0000000   0.0000000   0.0000000   0.0000000
 NMagM=    2.7928460   2.7928460   0.0000000   2.7928460   2.7928460   0.0000000   2.7928460   2.7928460   0.0000000   2.7928460
 AtZNuc=   1.0000000   1.0000000   8.0000000   1.0000000   1.0000000   8.0000000   1.0000000   1.0000000   8.0000000   1.0000000

  Atom        61          62          63          64          65          66          67          68          69          70
 IAtWgt=           1          16           1           1          16           1           1          16           1           1
 AtmWgt=   1.0078250  15.9949146   1.0078250   1.0078250  15.9949146   1.0078250   1.0078250  15.9949146   1.0078250   1.0078250
 NucSpn=           1           0           1           1           0           1           1           0           1           1
 AtZEff=   0.0000000   0.0000000   0.0000000   0.0000000   0.0000000   0.0000000   0.0000000   0.0000000   0.0000000   0.0000000
 NQMom=    0.0000000   0.0000000   0.0000000   0.0000000   0.0000000   0.0000000   0.0000000   0.0000000   0.0000000   0.0000000
 NMagM=    2.7928460   0.0000000   2.7928460   2.7928460   0.0000000   2.7928460   2.7928460   0.0000000   2.7928460   2.7928460
 AtZNuc=   1.0000000   8.0000000   1.0000000   1.0000000   8.0000000   1.0000000   1.0000000   8.0000000   1.0000000   1.0000000

  Atom        71          72          73          74          75          76          77          78          79          80
 IAtWgt=          16           1           1          16           1           1          16           1           1          16
 AtmWgt=  15.9949146   1.0078250   1.0078250  15.9949146   1.0078250   1.0078250  15.9949146   1.0078250   1.0078250  15.9949146
 NucSpn=           0           1           1           0           1           1           0           1           1           0
 AtZEff=   0.0000000   0.0000000   0.0000000   0.0000000   0.0000000   0.0000000   0.0000000   0.0000000   0.0000000   0.0000000
 NQMom=    0.0000000   0.0000000   0.0000000   0.0000000   0.0000000   0.0000000   0.0000000   0.0000000   0.0000000   0.0000000
 NMagM=    0.0000000   2.7928460   2.7928460   0.0000000   2.7928460   2.7928460   0.0000000   2.7928460   2.7928460   0.0000000
 AtZNuc=   8.0000000   1.0000000   1.0000000   8.0000000   1.0000000   1.0000000   8.0000000   1.0000000   1.0000000   8.0000000

  Atom        81          82          83          84          85          86          87          88          89          90
 IAtWgt=           1           1          16           1           1          16           1           1          16           1
 AtmWgt=   1.0078250   1.0078250  15.9949146   1.0078250   1.0078250  15.9949146   1.0078250   1.0078250  15.9949146   1.0078250
 NucSpn=           1           1           0           1           1           0           1           1           0           1
 AtZEff=   0.0000000   0.0000000   0.0000000   0.0000000   0.0000000   0.0000000   0.0000000   0.0000000   0.0000000   0.0000000
 NQMom=    0.0000000   0.0000000   0.0000000   0.0000000   0.0000000   0.0000000   0.0000000   0.0000000   0.0000000   0.0000000
 NMagM=    2.7928460   2.7928460   0.0000000   2.7928460   2.7928460   0.0000000   2.7928460   2.7928460   0.0000000   2.7928460
 AtZNuc=   1.0000000   1.0000000   8.0000000   1.0000000   1.0000000   8.0000000   1.0000000   1.0000000   8.0000000   1.0000000

  Atom        91          92          93          94          95          96          97          98          99         100
 IAtWgt=           1          16           1           1          16           1           1          16           1           1
 AtmWgt=   1.0078250  15.9949146   1.0078250   1.0078250  15.9949146   1.0078250   1.0078250  15.9949146   1.0078250   1.0078250
 NucSpn=           1           0           1           1           0           1           1           0           1           1
 AtZEff=   0.0000000   0.0000000   0.0000000   0.0000000   0.0000000   0.0000000   0.0000000   0.0000000   0.0000000   0.0000000
 NQMom=    0.0000000   0.0000000   0.0000000   0.0000000   0.0000000   0.0000000   0.0000000   0.0000000   0.0000000   0.0000000
 NMagM=    2.7928460   0.0000000   2.7928460   2.7928460   0.0000000   2.7928460   2.7928460   0.0000000   2.7928460   2.7928460
 AtZNuc=   1.0000000   8.0000000   1.0000000   1.0000000   8.0000000   1.0000000   1.0000000   8.0000000   1.0000000   1.0000000

  Atom       101         102         103         104         105         106         107         108         109         110
 IAtWgt=          16           1           1          16           1           1          16           1           1          16
 AtmWgt=  15.9949146   1.0078250   1.0078250  15.9949146   1.0078250   1.0078250  15.9949146   1.0078250   1.0078250  15.9949146
 NucSpn=           0           1           1           0           1           1           0           1           1           0
 AtZEff=   0.0000000   0.0000000   0.0000000   0.0000000   0.0000000   0.0000000   0.0000000   0.0000000   0.0000000   0.0000000
 NQMom=    0.0000000   0.0000000   0.0000000   0.0000000   0.0000000   0.0000000   0.0000000   0.0000000   0.0000000   0.0000000
 NMagM=    0.0000000   2.7928460   2.7928460   0.0000000   2.7928460   2.7928460   0.0000000   2.7928460   2.7928460   0.0000000
 AtZNuc=   8.0000000   1.0000000   1.0000000   8.0000000   1.0000000   1.0000000   8.0000000   1.0000000   1.0000000   8.0000000

  Atom       111         112         113         114         115         116         117         118         119         120
 IAtWgt=           1           1          16           1           1          16           1           1          16           1
 AtmWgt=   1.0078250   1.0078250  15.9949146   1.0078250   1.0078250  15.9949146   1.0078250   1.0078250  15.9949146   1.0078250
 NucSpn=           1           1           0           1           1           0           1           1           0           1
 AtZEff=   0.0000000   0.0000000   0.0000000   0.0000000   0.0000000   0.0000000   0.0000000   0.0000000   0.0000000   0.0000000
 NQMom=    0.0000000   0.0000000   0.0000000   0.0000000   0.0000000   0.0000000   0.0000000   0.0000000   0.0000000   0.0000000
 NMagM=    2.7928460   2.7928460   0.0000000   2.7928460   2.7928460   0.0000000   2.7928460   2.7928460   0.0000000   2.7928460
 AtZNuc=   1.0000000   1.0000000   8.0000000   1.0000000   1.0000000   8.0000000   1.0000000   1.0000000   8.0000000   1.0000000

  Atom       121         122         123         124         125         126         127         128         129         130
 IAtWgt=           1          16           1           1          16           1           1          16           1           1
 AtmWgt=   1.0078250  15.9949146   1.0078250   1.0078250  15.9949146   1.0078250   1.0078250  15.9949146   1.0078250   1.0078250
 NucSpn=           1           0           1           1           0           1           1           0           1           1
 AtZEff=   0.0000000   0.0000000   0.0000000   0.0000000   0.0000000   0.0000000   0.0000000   0.0000000   0.0000000   0.0000000
 NQMom=    0.0000000   0.0000000   0.0000000   0.0000000   0.0000000   0.0000000   0.0000000   0.0000000   0.0000000   0.0000000
 NMagM=    2.7928460   0.0000000   2.7928460   2.7928460   0.0000000   2.7928460   2.7928460   0.0000000   2.7928460   2.7928460
 AtZNuc=   1.0000000   8.0000000   1.0000000   1.0000000   8.0000000   1.0000000   1.0000000   8.0000000   1.0000000   1.0000000

  Atom       131         132         133         134         135         136         137         138         139         140
 IAtWgt=          16           1           1          16           1           1          16           1           1          16
 AtmWgt=  15.9949146   1.0078250   1.0078250  15.9949146   1.0078250   1.0078250  15.9949146   1.0078250   1.0078250  15.9949146
 NucSpn=           0           1           1           0           1           1           0           1           1           0
 AtZEff=   0.0000000   0.0000000   0.0000000   0.0000000   0.0000000   0.0000000   0.0000000   0.0000000   0.0000000   0.0000000
 NQMom=    0.0000000   0.0000000   0.0000000   0.0000000   0.0000000   0.0000000   0.0000000   0.0000000   0.0000000   0.0000000
 NMagM=    0.0000000   2.7928460   2.7928460   0.0000000   2.7928460   2.7928460   0.0000000   2.7928460   2.7928460   0.0000000
 AtZNuc=   8.0000000   1.0000000   1.0000000   8.0000000   1.0000000   1.0000000   8.0000000   1.0000000   1.0000000   8.0000000

  Atom       141         142         143         144         145         146         147         148         149         150
 IAtWgt=           1           1          16           1           1          16           1           1          16           1
 AtmWgt=   1.0078250   1.0078250  15.9949146   1.0078250   1.0078250  15.9949146   1.0078250   1.0078250  15.9949146   1.0078250
 NucSpn=           1           1           0           1           1           0           1           1           0           1
 AtZEff=   0.0000000   0.0000000   0.0000000   0.0000000   0.0000000   0.0000000   0.0000000   0.0000000   0.0000000   0.0000000
 NQMom=    0.0000000   0.0000000   0.0000000   0.0000000   0.0000000   0.0000000   0.0000000   0.0000000   0.0000000   0.0000000
 NMagM=    2.7928460   2.7928460   0.0000000   2.7928460   2.7928460   0.0000000   2.7928460   2.7928460   0.0000000   2.7928460
 AtZNuc=   1.0000000   1.0000000   8.0000000   1.0000000   1.0000000   8.0000000   1.0000000   1.0000000   8.0000000   1.0000000

  Atom       151         152         153         154         155         156         157         158         159         160
 IAtWgt=           1          16           1           1          16           1           1          16           1           1
 AtmWgt=   1.0078250  15.9949146   1.0078250   1.0078250  15.9949146   1.0078250   1.0078250  15.9949146   1.0078250   1.0078250
 NucSpn=           1           0           1           1           0           1           1           0           1           1
 AtZEff=   0.0000000   0.0000000   0.0000000   0.0000000   0.0000000   0.0000000   0.0000000   0.0000000   0.0000000   0.0000000
 NQMom=    0.0000000   0.0000000   0.0000000   0.0000000   0.0000000   0.0000000   0.0000000   0.0000000   0.0000000   0.0000000
 NMagM=    2.7928460   0.0000000   2.7928460   2.7928460   0.0000000   2.7928460   2.7928460   0.0000000   2.7928460   2.7928460
 AtZNuc=   1.0000000   8.0000000   1.0000000   1.0000000   8.0000000   1.0000000   1.0000000   8.0000000   1.0000000   1.0000000

  Atom       161         162         163         164         165         166         167         168         169         170
 IAtWgt=          16           1           1          16           1           1          16           1           1          16
 AtmWgt=  15.9949146   1.0078250   1.0078250  15.9949146   1.0078250   1.0078250  15.9949146   1.0078250   1.0078250  15.9949146
 NucSpn=           0           1           1           0           1           1           0           1           1           0
 AtZEff=   0.0000000   0.0000000   0.0000000   0.0000000   0.0000000   0.0000000   0.0000000   0.0000000   0.0000000   0.0000000
 NQMom=    0.0000000   0.0000000   0.0000000   0.0000000   0.0000000   0.0000000   0.0000000   0.0000000   0.0000000   0.0000000
 NMagM=    0.0000000   2.7928460   2.7928460   0.0000000   2.7928460   2.7928460   0.0000000   2.7928460   2.7928460   0.0000000
 AtZNuc=   8.0000000   1.0000000   1.0000000   8.0000000   1.0000000   1.0000000   8.0000000   1.0000000   1.0000000   8.0000000

  Atom       171         172         173         174         175         176         177         178         179         180
 IAtWgt=           1           1          16           1           1          16           1           1          16           1
 AtmWgt=   1.0078250   1.0078250  15.9949146   1.0078250   1.0078250  15.9949146   1.0078250   1.0078250  15.9949146   1.0078250
 NucSpn=           1           1           0           1           1           0           1           1           0           1
 AtZEff=   0.0000000   0.0000000   0.0000000   0.0000000   0.0000000   0.0000000   0.0000000   0.0000000   0.0000000   0.0000000
 NQMom=    0.0000000   0.0000000   0.0000000   0.0000000   0.0000000   0.0000000   0.0000000   0.0000000   0.0000000   0.0000000
 NMagM=    2.7928460   2.7928460   0.0000000   2.7928460   2.7928460   0.0000000   2.7928460   2.7928460   0.0000000   2.7928460
 AtZNuc=   1.0000000   1.0000000   8.0000000   1.0000000   1.0000000   8.0000000   1.0000000   1.0000000   8.0000000   1.0000000

  Atom       181         182         183         184         185         186         187         188         189         190
 IAtWgt=           1          16           1           1          16           1           1          16           1           1
 AtmWgt=   1.0078250  15.9949146   1.0078250   1.0078250  15.9949146   1.0078250   1.0078250  15.9949146   1.0078250   1.0078250
 NucSpn=           1           0           1           1           0           1           1           0           1           1
 AtZEff=   0.0000000   0.0000000   0.0000000   0.0000000   0.0000000   0.0000000   0.0000000   0.0000000   0.0000000   0.0000000
 NQMom=    0.0000000   0.0000000   0.0000000   0.0000000   0.0000000   0.0000000   0.0000000   0.0000000   0.0000000   0.0000000
 NMagM=    2.7928460   0.0000000   2.7928460   2.7928460   0.0000000   2.7928460   2.7928460   0.0000000   2.7928460   2.7928460
 AtZNuc=   1.0000000   8.0000000   1.0000000   1.0000000   8.0000000   1.0000000   1.0000000   8.0000000   1.0000000   1.0000000

  Atom       191         192         193         194         195         196         197         198         199         200
 IAtWgt=          16           1           1          16           1           1          16           1           1          16
 AtmWgt=  15.9949146   1.0078250   1.0078250  15.9949146   1.0078250   1.0078250  15.9949146   1.0078250   1.0078250  15.9949146
 NucSpn=           0           1           1           0           1           1           0           1           1           0
 AtZEff=   0.0000000   0.0000000   0.0000000   0.0000000   0.0000000   0.0000000   0.0000000   0.0000000   0.0000000   0.0000000
 NQMom=    0.0000000   0.0000000   0.0000000   0.0000000   0.0000000   0.0000000   0.0000000   0.0000000   0.0000000   0.0000000
 NMagM=    0.0000000   2.7928460   2.7928460   0.0000000   2.7928460   2.7928460   0.0000000   2.7928460   2.7928460   0.0000000
 AtZNuc=   8.0000000   1.0000000   1.0000000   8.0000000   1.0000000   1.0000000   8.0000000   1.0000000   1.0000000   8.0000000

  Atom       201         202         203         204         205         206         207         208         209         210
 IAtWgt=           1           1          16           1           1          16           1           1          16           1
 AtmWgt=   1.0078250   1.0078250  15.9949146   1.0078250   1.0078250  15.9949146   1.0078250   1.0078250  15.9949146   1.0078250
 NucSpn=           1           1           0           1           1           0           1           1           0           1
 AtZEff=   0.0000000   0.0000000   0.0000000   0.0000000   0.0000000   0.0000000   0.0000000   0.0000000   0.0000000   0.0000000
 NQMom=    0.0000000   0.0000000   0.0000000   0.0000000   0.0000000   0.0000000   0.0000000   0.0000000   0.0000000   0.0000000
 NMagM=    2.7928460   2.7928460   0.0000000   2.7928460   2.7928460   0.0000000   2.7928460   2.7928460   0.0000000   2.7928460
 AtZNuc=   1.0000000   1.0000000   8.0000000   1.0000000   1.0000000   8.0000000   1.0000000   1.0000000   8.0000000   1.0000000

  Atom       211         212         213         214         215         216         217         218         219         220
 IAtWgt=           1          16           1           1          16           1           1          16           1           1
 AtmWgt=   1.0078250  15.9949146   1.0078250   1.0078250  15.9949146   1.0078250   1.0078250  15.9949146   1.0078250   1.0078250
 NucSpn=           1           0           1           1           0           1           1           0           1           1
 AtZEff=   0.0000000   0.0000000   0.0000000   0.0000000   0.0000000   0.0000000   0.0000000   0.0000000   0.0000000   0.0000000
 NQMom=    0.0000000   0.0000000   0.0000000   0.0000000   0.0000000   0.0000000   0.0000000   0.0000000   0.0000000   0.0000000
 NMagM=    2.7928460   0.0000000   2.7928460   2.7928460   0.0000000   2.7928460   2.7928460   0.0000000   2.7928460   2.7928460
 AtZNuc=   1.0000000   8.0000000   1.0000000   1.0000000   8.0000000   1.0000000   1.0000000   8.0000000   1.0000000   1.0000000

  Atom       221         222         223         224         225         226         227         228         229         230
 IAtWgt=          16           1           1          16           1           1          16           1           1          16
 AtmWgt=  15.9949146   1.0078250   1.0078250  15.9949146   1.0078250   1.0078250  15.9949146   1.0078250   1.0078250  15.9949146
 NucSpn=           0           1           1           0           1           1           0           1           1           0
 AtZEff=   0.0000000   0.0000000   0.0000000   0.0000000   0.0000000   0.0000000   0.0000000   0.0000000   0.0000000   0.0000000
 NQMom=    0.0000000   0.0000000   0.0000000   0.0000000   0.0000000   0.0000000   0.0000000   0.0000000   0.0000000   0.0000000
 NMagM=    0.0000000   2.7928460   2.7928460   0.0000000   2.7928460   2.7928460   0.0000000   2.7928460   2.7928460   0.0000000
 AtZNuc=   8.0000000   1.0000000   1.0000000   8.0000000   1.0000000   1.0000000   8.0000000   1.0000000   1.0000000   8.0000000

  Atom       231         232         233         234         235         236         237         238         239         240
 IAtWgt=           1           1          16           1           1          16           1           1          16           1
 AtmWgt=   1.0078250   1.0078250  15.9949146   1.0078250   1.0078250  15.9949146   1.0078250   1.0078250  15.9949146   1.0078250
 NucSpn=           1           1           0           1           1           0           1           1           0           1
 AtZEff=   0.0000000   0.0000000   0.0000000   0.0000000   0.0000000   0.0000000   0.0000000   0.0000000   0.0000000   0.0000000
 NQMom=    0.0000000   0.0000000   0.0000000   0.0000000   0.0000000   0.0000000   0.0000000   0.0000000   0.0000000   0.0000000
 NMagM=    2.7928460   2.7928460   0.0000000   2.7928460   2.7928460   0.0000000   2.7928460   2.7928460   0.0000000   2.7928460
 AtZNuc=   1.0000000   1.0000000   8.0000000   1.0000000   1.0000000   8.0000000   1.0000000   1.0000000   8.0000000   1.0000000

  Atom       241         242         243         244         245         246         247         248         249         250
 IAtWgt=           1          16           1           1          16           1           1          16           1           1
 AtmWgt=   1.0078250  15.9949146   1.0078250   1.0078250  15.9949146   1.0078250   1.0078250  15.9949146   1.0078250   1.0078250
 NucSpn=           1           0           1           1           0           1           1           0           1           1
 AtZEff=   0.0000000   0.0000000   0.0000000   0.0000000   0.0000000   0.0000000   0.0000000   0.0000000   0.0000000   0.0000000
 NQMom=    0.0000000   0.0000000   0.0000000   0.0000000   0.0000000   0.0000000   0.0000000   0.0000000   0.0000000   0.0000000
 NMagM=    2.7928460   0.0000000   2.7928460   2.7928460   0.0000000   2.7928460   2.7928460   0.0000000   2.7928460   2.7928460
 AtZNuc=   1.0000000   8.0000000   1.0000000   1.0000000   8.0000000   1.0000000   1.0000000   8.0000000   1.0000000   1.0000000

  Atom       251         252         253         254         255         256         257         258         259         260
 IAtWgt=          16           1           1          16           1           1          16           1           1          16
 AtmWgt=  15.9949146   1.0078250   1.0078250  15.9949146   1.0078250   1.0078250  15.9949146   1.0078250   1.0078250  15.9949146
 NucSpn=           0           1           1           0           1           1           0           1           1           0
 AtZEff=   0.0000000   0.0000000   0.0000000   0.0000000   0.0000000   0.0000000   0.0000000   0.0000000   0.0000000   0.0000000
 NQMom=    0.0000000   0.0000000   0.0000000   0.0000000   0.0000000   0.0000000   0.0000000   0.0000000   0.0000000   0.0000000
 NMagM=    0.0000000   2.7928460   2.7928460   0.0000000   2.7928460   2.7928460   0.0000000   2.7928460   2.7928460   0.0000000
 AtZNuc=   8.0000000   1.0000000   1.0000000   8.0000000   1.0000000   1.0000000   8.0000000   1.0000000   1.0000000   8.0000000

  Atom       261         262         263         264         265         266         267         268         269         270
 IAtWgt=           1           1          16           1           1          16           1           1          16           1
 AtmWgt=   1.0078250   1.0078250  15.9949146   1.0078250   1.0078250  15.9949146   1.0078250   1.0078250  15.9949146   1.0078250
 NucSpn=           1           1           0           1           1           0           1           1           0           1
 AtZEff=   0.0000000   0.0000000   0.0000000   0.0000000   0.0000000   0.0000000   0.0000000   0.0000000   0.0000000   0.0000000
 NQMom=    0.0000000   0.0000000   0.0000000   0.0000000   0.0000000   0.0000000   0.0000000   0.0000000   0.0000000   0.0000000
 NMagM=    2.7928460   2.7928460   0.0000000   2.7928460   2.7928460   0.0000000   2.7928460   2.7928460   0.0000000   2.7928460
 AtZNuc=   1.0000000   1.0000000   8.0000000   1.0000000   1.0000000   8.0000000   1.0000000   1.0000000   8.0000000   1.0000000

  Atom       271         272         273         274         275         276         277         278         279         280
 IAtWgt=           1          16           1           1          16           1           1          16           1           1
 AtmWgt=   1.0078250  15.9949146   1.0078250   1.0078250  15.9949146   1.0078250   1.0078250  15.9949146   1.0078250   1.0078250
 NucSpn=           1           0           1           1           0           1           1           0           1           1
 AtZEff=   0.0000000   0.0000000   0.0000000   0.0000000   0.0000000   0.0000000   0.0000000   0.0000000   0.0000000   0.0000000
 NQMom=    0.0000000   0.0000000   0.0000000   0.0000000   0.0000000   0.0000000   0.0000000   0.0000000   0.0000000   0.0000000
 NMagM=    2.7928460   0.0000000   2.7928460   2.7928460   0.0000000   2.7928460   2.7928460   0.0000000   2.7928460   2.7928460
 AtZNuc=   1.0000000   8.0000000   1.0000000   1.0000000   8.0000000   1.0000000   1.0000000   8.0000000   1.0000000   1.0000000

  Atom       281         282         283         284         285         286         287         288         289         290
 IAtWgt=          16           1           1          16           1           1          16           1           1          16
 AtmWgt=  15.9949146   1.0078250   1.0078250  15.9949146   1.0078250   1.0078250  15.9949146   1.0078250   1.0078250  15.9949146
 NucSpn=           0           1           1           0           1           1           0           1           1           0
 AtZEff=   0.0000000   0.0000000   0.0000000   0.0000000   0.0000000   0.0000000   0.0000000   0.0000000   0.0000000   0.0000000
 NQMom=    0.0000000   0.0000000   0.0000000   0.0000000   0.0000000   0.0000000   0.0000000   0.0000000   0.0000000   0.0000000
 NMagM=    0.0000000   2.7928460   2.7928460   0.0000000   2.7928460   2.7928460   0.0000000   2.7928460   2.7928460   0.0000000
 AtZNuc=   8.0000000   1.0000000   1.0000000   8.0000000   1.0000000   1.0000000   8.0000000   1.0000000   1.0000000   8.0000000

  Atom       291         292         293         294         295         296         297         298         299         300
 IAtWgt=           1           1          16           1           1          16           1           1          16           1
 AtmWgt=   1.0078250   1.0078250  15.9949146   1.0078250   1.0078250  15.9949146   1.0078250   1.0078250  15.9949146   1.0078250
 NucSpn=           1           1           0           1           1           0           1           1           0           1
 AtZEff=   0.0000000   0.0000000   0.0000000   0.0000000   0.0000000   0.0000000   0.0000000   0.0000000   0.0000000   0.0000000
 NQMom=    0.0000000   0.0000000   0.0000000   0.0000000   0.0000000   0.0000000   0.0000000   0.0000000   0.0000000   0.0000000
 NMagM=    2.7928460   2.7928460   0.0000000   2.7928460   2.7928460   0.0000000   2.7928460   2.7928460   0.0000000   2.7928460
 AtZNuc=   1.0000000   1.0000000   8.0000000   1.0000000   1.0000000   8.0000000   1.0000000   1.0000000   8.0000000   1.0000000

  Atom       301         302         303         304         305         306         307         308         309         310
 IAtWgt=           1          16           1           1          16           1           1          16           1           1
 AtmWgt=   1.0078250  15.9949146   1.0078250   1.0078250  15.9949146   1.0078250   1.0078250  15.9949146   1.0078250   1.0078250
 NucSpn=           1           0           1           1           0           1           1           0           1           1
 AtZEff=   0.0000000   0.0000000   0.0000000   0.0000000   0.0000000   0.0000000   0.0000000   0.0000000   0.0000000   0.0000000
 NQMom=    0.0000000   0.0000000   0.0000000   0.0000000   0.0000000   0.0000000   0.0000000   0.0000000   0.0000000   0.0000000
 NMagM=    2.7928460   0.0000000   2.7928460   2.7928460   0.0000000   2.7928460   2.7928460   0.0000000   2.7928460   2.7928460
 AtZNuc=   1.0000000   8.0000000   1.0000000   1.0000000   8.0000000   1.0000000   1.0000000   8.0000000   1.0000000   1.0000000

  Atom       311         312         313         314         315         316         317         318         319         320
 IAtWgt=          16           1           1          16           1           1          16           1           1          16
 AtmWgt=  15.9949146   1.0078250   1.0078250  15.9949146   1.0078250   1.0078250  15.9949146   1.0078250   1.0078250  15.9949146
 NucSpn=           0           1           1           0           1           1           0           1           1           0
 AtZEff=   0.0000000   0.0000000   0.0000000   0.0000000   0.0000000   0.0000000   0.0000000   0.0000000   0.0000000   0.0000000
 NQMom=    0.0000000   0.0000000   0.0000000   0.0000000   0.0000000   0.0000000   0.0000000   0.0000000   0.0000000   0.0000000
 NMagM=    0.0000000   2.7928460   2.7928460   0.0000000   2.7928460   2.7928460   0.0000000   2.7928460   2.7928460   0.0000000
 AtZNuc=   8.0000000   1.0000000   1.0000000   8.0000000   1.0000000   1.0000000   8.0000000   1.0000000   1.0000000   8.0000000

  Atom       321         322         323         324         325         326         327         328         329         330
 IAtWgt=           1           1          16           1           1          16           1           1          16           1
 AtmWgt=   1.0078250   1.0078250  15.9949146   1.0078250   1.0078250  15.9949146   1.0078250   1.0078250  15.9949146   1.0078250
 NucSpn=           1           1           0           1           1           0           1           1           0           1
 AtZEff=   0.0000000   0.0000000   0.0000000   0.0000000   0.0000000   0.0000000   0.0000000   0.0000000   0.0000000   0.0000000
 NQMom=    0.0000000   0.0000000   0.0000000   0.0000000   0.0000000   0.0000000   0.0000000   0.0000000   0.0000000   0.0000000
 NMagM=    2.7928460   2.7928460   0.0000000   2.7928460   2.7928460   0.0000000   2.7928460   2.7928460   0.0000000   2.7928460
 AtZNuc=   1.0000000   1.0000000   8.0000000   1.0000000   1.0000000   8.0000000   1.0000000   1.0000000   8.0000000   1.0000000

  Atom       331         332         333         334         335         336         337         338         339         340
 IAtWgt=           1          16           1           1          16           1           1          16           1           1
 AtmWgt=   1.0078250  15.9949146   1.0078250   1.0078250  15.9949146   1.0078250   1.0078250  15.9949146   1.0078250   1.0078250
 NucSpn=           1           0           1           1           0           1           1           0           1           1
 AtZEff=   0.0000000   0.0000000   0.0000000   0.0000000   0.0000000   0.0000000   0.0000000   0.0000000   0.0000000   0.0000000
 NQMom=    0.0000000   0.0000000   0.0000000   0.0000000   0.0000000   0.0000000   0.0000000   0.0000000   0.0000000   0.0000000
 NMagM=    2.7928460   0.0000000   2.7928460   2.7928460   0.0000000   2.7928460   2.7928460   0.0000000   2.7928460   2.7928460
 AtZNuc=   1.0000000   8.0000000   1.0000000   1.0000000   8.0000000   1.0000000   1.0000000   8.0000000   1.0000000   1.0000000

  Atom       341         342         343         344         345         346         347         348         349         350
 IAtWgt=          16           1           1          16           1           1          16           1           1          16
 AtmWgt=  15.9949146   1.0078250   1.0078250  15.9949146   1.0078250   1.0078250  15.9949146   1.0078250   1.0078250  15.9949146
 NucSpn=           0           1           1           0           1           1           0           1           1           0
 AtZEff=   0.0000000   0.0000000   0.0000000   0.0000000   0.0000000   0.0000000   0.0000000   0.0000000   0.0000000   0.0000000
 NQMom=    0.0000000   0.0000000   0.0000000   0.0000000   0.0000000   0.0000000   0.0000000   0.0000000   0.0000000   0.0000000
 NMagM=    0.0000000   2.7928460   2.7928460   0.0000000   2.7928460   2.7928460   0.0000000   2.7928460   2.7928460   0.0000000
 AtZNuc=   8.0000000   1.0000000   1.0000000   8.0000000   1.0000000   1.0000000   8.0000000   1.0000000   1.0000000   8.0000000

  Atom       351         352         353         354         355         356         357         358         359         360
 IAtWgt=           1           1          16           1           1          16           1           1          16           1
 AtmWgt=   1.0078250   1.0078250  15.9949146   1.0078250   1.0078250  15.9949146   1.0078250   1.0078250  15.9949146   1.0078250
 NucSpn=           1           1           0           1           1           0           1           1           0           1
 AtZEff=   0.0000000   0.0000000   0.0000000   0.0000000   0.0000000   0.0000000   0.0000000   0.0000000   0.0000000   0.0000000
 NQMom=    0.0000000   0.0000000   0.0000000   0.0000000   0.0000000   0.0000000   0.0000000   0.0000000   0.0000000   0.0000000
 NMagM=    2.7928460   2.7928460   0.0000000   2.7928460   2.7928460   0.0000000   2.7928460   2.7928460   0.0000000   2.7928460
 AtZNuc=   1.0000000   1.0000000   8.0000000   1.0000000   1.0000000   8.0000000   1.0000000   1.0000000   8.0000000   1.0000000

  Atom       361         362         363         364         365         366         367         368         369         370
 IAtWgt=           1          16           1           1          16           1           1          16           1           1
 AtmWgt=   1.0078250  15.9949146   1.0078250   1.0078250  15.9949146   1.0078250   1.0078250  15.9949146   1.0078250   1.0078250
 NucSpn=           1           0           1           1           0           1           1           0           1           1
 AtZEff=   0.0000000   0.0000000   0.0000000   0.0000000   0.0000000   0.0000000   0.0000000   0.0000000   0.0000000   0.0000000
 NQMom=    0.0000000   0.0000000   0.0000000   0.0000000   0.0000000   0.0000000   0.0000000   0.0000000   0.0000000   0.0000000
 NMagM=    2.7928460   0.0000000   2.7928460   2.7928460   0.0000000   2.7928460   2.7928460   0.0000000   2.7928460   2.7928460
 AtZNuc=   1.0000000   8.0000000   1.0000000   1.0000000   8.0000000   1.0000000   1.0000000   8.0000000   1.0000000   1.0000000

  Atom       371         372         373         374         375         376         377         378         379         380
 IAtWgt=          16           1           1          16           1           1          16           1           1          16
 AtmWgt=  15.9949146   1.0078250   1.0078250  15.9949146   1.0078250   1.0078250  15.9949146   1.0078250   1.0078250  15.9949146
 NucSpn=           0           1           1           0           1           1           0           1           1           0
 AtZEff=   0.0000000   0.0000000   0.0000000   0.0000000   0.0000000   0.0000000   0.0000000   0.0000000   0.0000000   0.0000000
 NQMom=    0.0000000   0.0000000   0.0000000   0.0000000   0.0000000   0.0000000   0.0000000   0.0000000   0.0000000   0.0000000
 NMagM=    0.0000000   2.7928460   2.7928460   0.0000000   2.7928460   2.7928460   0.0000000   2.7928460   2.7928460   0.0000000
 AtZNuc=   8.0000000   1.0000000   1.0000000   8.0000000   1.0000000   1.0000000   8.0000000   1.0000000   1.0000000   8.0000000

  Atom       381         382         383         384         385
 IAtWgt=           1           1          16           1           1
 AtmWgt=   1.0078250   1.0078250  15.9949146   1.0078250   1.0078250
 NucSpn=           1           1           0           1           1
 AtZEff=   0.0000000   0.0000000   0.0000000   0.0000000   0.0000000
 NQMom=    0.0000000   0.0000000   0.0000000   0.0000000   0.0000000
 NMagM=    2.7928460   2.7928460   0.0000000   2.7928460   2.7928460
 AtZNuc=   1.0000000   1.0000000   8.0000000   1.0000000   1.0000000
 Leave Link  101 at Sat May  5 07:40:21 2018, MaxMem= 14763950080 cpu:        37.9
 (Enter /cm/shared/gaussian/g09.e01/intel64-sandybridge/g09/l103.exe)

 GradGradGradGradGradGradGradGradGradGradGradGradGradGradGradGradGradGrad
 Berny optimization.
 Initialization pass.
 Trust Radius=3.00D-01 FncErr=1.00D-07 GrdErr=1.00D-07
 Number of steps in this run=      2 maximum allowed number of steps=      2.
 GradGradGradGradGradGradGradGradGradGradGradGradGradGradGradGradGradGrad

 Leave Link  103 at Sat May  5 07:40:21 2018, MaxMem= 14763950080 cpu:         6.2
 (Enter /cm/shared/gaussian/g09.e01/intel64-sandybridge/g09/l202.exe)
 Symmetry turned off by external request.
 Stoichiometry    BrH256O128(1-)
 Framework group  C1[X(BrH256O128)]
 Deg. of freedom  1149
 Full point group                 C1      NOp   1
                          Input orientation:                          
 ---------------------------------------------------------------------
 Center     Atomic      Atomic             Coordinates (Angstroms)
 Number     Number       Type             X           Y           Z
 ---------------------------------------------------------------------
      1         35           0       20.000000   20.000000   20.000000
      2          8           0       17.640000   21.920000   21.170000
      3          1           0       18.040000   22.770000   21.340000
      4          1           0       18.320000   21.420000   20.720000
      5          8           0       18.130000   21.240000   17.630000
      6          1           0       17.940000   22.150000   17.830000
      7          1           0       18.560000   20.900000   18.420000
      8          8           0       21.810000   21.370000   17.730000
      9          1           0       21.240000   21.350000   18.490000
     10          1           0       22.700000   21.280000   18.090000
     11          8           0       17.770000   18.460000   21.980000
     12          1           0       18.440000   18.590000   21.310000
     13          1           0       18.050000   19.020000   22.700000
     14          8           0       20.920000   22.260000   22.740000
     15          1           0       21.820000   22.560000   22.680000
     16          1           0       20.840000   21.590000   22.050000
     17          8           0       23.300000   18.540000   18.690000
     18          1           0       23.870000   19.300000   18.790000
     19          1           0       22.430000   18.860000   18.920000
     20          8           0       17.520000   16.690000   18.770000
     21          1           0       18.240000   17.300000   18.950000
     22          1           0       17.910000   16.020000   18.210000
     23          8           0       23.670000   19.200000   22.080000
     24          1           0       23.530000   18.270000   21.920000
     25          1           0       23.040000   19.640000   21.510000
     26          8           0       19.650000   17.920000   15.990000
     27          1           0       19.650000   18.310000   16.870000
     28          1           0       19.130000   18.520000   15.460000
     29          8           0       23.770000   21.290000   19.360000
     30          1           0       23.480000   21.590000   20.230000
     31          1           0       24.270000   22.030000   19.020000
     32          8           0       19.990000   21.630000   15.290000
     33          1           0       20.360000   21.440000   16.150000
     34          1           0       19.070000   21.400000   15.370000
     35          8           0       15.650000   18.770000   19.650000
     36          1           0       15.930000   19.130000   20.490000
     37          1           0       16.310000   18.110000   19.430000
     38          8           0       20.220000   20.220000   24.680000
     39          1           0       20.270000   20.950000   24.070000
     40          1           0       19.320000   19.910000   24.610000
     41          8           0       17.790000   19.780000   15.520000
     42          1           0       17.950000   20.280000   16.320000
     43          1           0       16.870000   19.960000   15.300000
     44          8           0       20.260000   24.310000   19.820000
     45          1           0       21.200000   24.260000   20.000000
     46          1           0       19.860000   24.340000   20.690000
     47          8           0       19.000000   24.210000   22.280000
     48          1           0       19.740000   23.620000   22.370000
     49          1           0       19.050000   24.780000   23.060000
     50          8           0       20.330000   17.150000   23.340000
     51          1           0       21.030000   17.570000   23.840000
     52          1           0       20.740000   16.370000   22.960000
     53          8           0       18.070000   24.050000   18.450000
     54          1           0       17.940000   24.690000   17.750000
     55          1           0       18.810000   24.390000   18.950000
     56          8           0       15.020000   21.170000   21.640000
     57          1           0       15.310000   20.970000   22.530000
     58          1           0       15.770000   21.580000   21.230000
     59          8           0       23.260000   23.120000   21.390000
     60          1           0       23.510000   23.780000   20.740000
     61          1           0       23.540000   23.490000   22.220000
     62          8           0       21.140000   24.260000   16.420000
     63          1           0       21.000000   23.980000   15.510000
     64          1           0       20.910000   23.490000   16.940000
     65          8           0       23.100000   16.250000   17.720000
     66          1           0       22.800000   16.430000   16.830000
     67          1           0       23.240000   17.120000   18.100000
     68          8           0       17.750000   15.570000   22.030000
     69          1           0       17.170000   16.170000   21.570000
     70          1           0       18.430000   16.140000   22.400000
     71          8           0       22.220000   18.630000   24.580000
     72          1           0       22.820000   18.920000   23.900000
     73          1           0       21.500000   19.260000   24.540000
     74          8           0       23.860000   16.510000   21.140000
     75          1           0       23.430000   16.590000   20.290000
     76          1           0       23.600000   15.640000   21.450000
     77          8           0       15.510000   23.070000   18.540000
     78          1           0       15.370000   22.130000   18.410000
     79          1           0       16.470000   23.160000   18.580000
     80          8           0       20.730000   15.050000   18.130000
     81          1           0       21.120000   14.180000   18.240000
     82          1           0       21.480000   15.650000   18.100000
     83          8           0       23.180000   21.190000   15.010000
     84          1           0       22.610000   21.350000   15.760000
     85          1           0       23.010000   20.280000   14.770000
     86          8           0       17.480000   19.950000   24.640000
     87          1           0       17.500000   20.780000   25.110000
     88          1           0       16.560000   19.850000   24.380000
     89          8           0       14.610000   20.090000   17.630000
     90          1           0       14.820000   19.600000   18.420000
     91          1           0       14.970000   19.560000   16.920000
     92          8           0       18.940000   17.580000   25.820000
     93          1           0       18.620000   18.210000   26.470000
     94          1           0       19.280000   18.120000   25.110000
     95          8           0       21.870000   16.270000   15.460000
     96          1           0       21.380000   15.610000   15.940000
     97          1           0       21.280000   17.020000   15.380000
     98          8           0       16.340000   25.060000   22.340000
     99          1           0       16.330000   25.340000   23.250000
    100          1           0       17.190000   24.630000   22.230000
    101          8           0       24.820000   23.310000   17.980000
    102          1           0       25.410000   23.710000   18.620000
    103          1           0       25.320000   23.340000   17.160000
    104          8           0       13.400000   19.080000   21.750000
    105          1           0       13.930000   19.860000   21.890000
    106          1           0       13.120000   19.150000   20.830000
    107          8           0       16.920000   16.510000   14.800000
    108          1           0       16.230000   16.680000   15.450000
    109          1           0       17.470000   17.290000   14.830000
    110          8           0       23.670000   25.350000   20.030000
    111          1           0       23.590000   25.420000   19.080000
    112          1           0       23.310000   26.170000   20.360000
    113          8           0       26.820000   17.170000   19.510000
    114          1           0       25.890000   17.270000   19.720000
    115          1           0       27.270000   17.320000   20.340000
    116          8           0       19.460000   13.570000   22.820000
    117          1           0       18.920000   14.330000   23.050000
    118          1           0       20.080000   13.510000   23.550000
    119          8           0       23.360000   25.530000   17.210000
    120          1           0       23.890000   24.800000   17.530000
    121          1           0       22.600000   25.100000   16.810000
    122          8           0       22.120000   21.250000   26.950000
    123          1           0       22.030000   20.660000   26.200000
    124          1           0       23.010000   21.610000   26.870000
    125          8           0       15.490000   15.810000   16.920000
    126          1           0       16.010000   15.010000   16.890000
    127          1           0       15.300000   15.940000   17.850000
    128          8           0       21.640000   22.940000   13.710000
    129          1           0       22.360000   22.400000   14.050000
    130          1           0       20.850000   22.460000   13.930000
    131          8           0       15.940000   13.940000   19.380000
    132          1           0       15.980000   14.760000   19.880000
    133          1           0       16.760000   13.500000   19.570000
    134          8           0       22.720000   13.670000   20.860000
    135          1           0       22.890000   12.970000   21.490000
    136          1           0       21.780000   13.620000   20.690000
    137          8           0       20.690000   26.960000   18.450000
    138          1           0       20.790000   26.280000   17.790000
    139          1           0       21.050000   27.750000   18.040000
    140          8           0       22.230000   14.850000   23.670000
    141          1           0       22.040000   14.240000   24.380000
    142          1           0       23.180000   14.950000   23.670000
    143          8           0       17.600000   14.470000   16.300000
    144          1           0       18.540000   14.440000   16.490000
    145          1           0       17.520000   15.130000   15.620000
    146          8           0       14.670000   19.420000   24.090000
    147          1           0       13.920000   19.210000   23.530000
    148          1           0       14.620000   18.790000   24.800000
    149          8           0       18.520000   12.980000   20.200000
    150          1           0       18.590000   12.080000   20.500000
    151          1           0       18.430000   13.500000   21.010000
    152          8           0       23.910000   23.640000   24.210000
    153          1           0       24.330000   23.200000   24.940000
    154          1           0       23.210000   24.150000   24.600000
    155          8           0       26.650000   17.640000   22.140000
    156          1           0       26.330000   18.540000   22.110000
    157          1           0       25.870000   17.110000   22.270000
    158          8           0       23.310000   13.570000   18.160000
    159          1           0       23.190000   14.390000   17.690000
    160          1           0       23.290000   13.810000   19.090000
    161          8           0       14.250000   24.610000   20.710000
    162          1           0       15.130000   24.710000   21.090000
    163          1           0       14.350000   23.950000   20.030000
    164          8           0       17.620000   15.350000   25.340000
    165          1           0       16.720000   15.270000   25.660000
    166          1           0       17.800000   16.290000   25.380000
    167          8           0       19.770000   27.390000   20.870000
    168          1           0       18.830000   27.530000   20.850000
    169          1           0       19.980000   26.990000   20.020000
    170          8           0       14.220000   16.190000   22.700000
    171          1           0       14.080000   15.980000   23.630000
    172          1           0       14.140000   17.140000   22.650000
    173          8           0       17.600000   25.580000   16.260000
    174          1           0       17.570000   26.530000   16.210000
    175          1           0       18.320000   25.340000   15.670000
    176          8           0       20.980000   17.850000   12.790000
    177          1           0       20.410000   17.080000   12.720000
    178          1           0       20.390000   18.550000   13.080000
    179          8           0       20.180000   14.640000   25.700000
    180          1           0       19.270000   14.790000   25.450000
    181          1           0       20.660000   15.380000   25.330000
    182          8           0       26.560000   21.960000   23.930000
    183          1           0       25.640000   21.720000   23.930000
    184          1           0       26.620000   22.730000   24.490000
    185          8           0       26.060000   21.470000   15.500000
    186          1           0       25.140000   21.740000   15.420000
    187          1           0       26.130000   20.720000   14.900000
    188          8           0       21.940000   25.960000   24.280000
    189          1           0       21.040000   25.630000   24.230000
    190          1           0       21.900000   26.810000   23.830000
    191          8           0       18.200000   22.910000   12.950000
    192          1           0       17.370000   23.370000   13.130000
    193          1           0       18.750000   23.120000   13.710000
    194          8           0       12.520000   21.480000   17.420000
    195          1           0       12.640000   22.310000   17.880000
    196          1           0       13.370000   21.050000   17.490000
    197          8           0       16.150000   13.510000   22.960000
    198          1           0       15.820000   14.100000   23.640000
    199          1           0       16.910000   13.960000   22.590000
    200          8           0       22.800000   17.010000   27.130000
    201          1           0       22.350000   17.500000   26.450000
    202          1           0       23.660000   16.800000   26.750000
    203          8           0       19.190000   25.670000   24.580000
    204          1           0       18.590000   25.200000   25.160000
    205          1           0       18.930000   26.590000   24.660000
    206          8           0       14.110000   24.570000   16.470000
    207          1           0       14.920000   24.490000   16.970000
[...]
   Y335      40.83698  -0.00992   0.00000  -0.00501  -0.00552  40.83146
   Z335      27.93015  -0.02472   0.00000  -0.01991  -0.02063  27.90952
   X336      22.73341  -0.00269   0.00000  -0.00312  -0.00293  22.73047
   Y336      42.59443   0.00889   0.00000   0.00503   0.00451  42.59894
   Z336      27.74118   0.00137   0.00000   0.00094   0.00022  27.74140
   X337      23.41371  -0.00224   0.00000  -0.00725  -0.00710  23.40661
   Y337      40.62911   0.00277   0.00000   0.00459   0.00407  40.63318
   Z337      29.70649   0.01522   0.00000   0.00669   0.00597  29.71247
   X338      39.06064  -0.00528   0.00000  -0.00247  -0.00199  39.05865
   Y338      44.03062  -0.00760   0.00000  -0.00479  -0.00478  44.02584
   Z338      20.61691  -0.00970   0.00000  -0.00701  -0.00696  20.60996
   X339      39.81653   0.00406   0.00000   0.00169   0.00211  39.81864
   Y339      43.65267  -0.00116   0.00000  -0.00089  -0.00088  43.65179
   Z339      22.22318   0.00900   0.00000   0.00544   0.00553  22.22871
   X340      39.38189   0.00192   0.00000   0.00071   0.00116  39.38305
   Y340      45.78806   0.00905   0.00000   0.00614   0.00616  45.79422
   Z340      20.37125   0.00067   0.00000   0.00135   0.00144  20.37269
   X341      36.20715   0.00367   0.00000  -0.00156  -0.00081  36.20634
   Y341      30.23562   0.00229   0.00000  -0.00054  -0.00063  30.23499
   Z341      22.90348   0.00158   0.00000   0.00114   0.00090  22.90438
   X342      34.58199  -0.00835   0.00000  -0.00788  -0.00713  34.57486
   Y342      29.46083  -0.00707   0.00000  -0.00885  -0.00899  29.45184
   Z342      23.18694  -0.00095   0.00000  -0.00252  -0.00285  23.18409
   X343      36.66069   0.00264   0.00000   0.00357   0.00441  36.66510
   Y343      29.72539  -0.00207   0.00000  -0.00255  -0.00261  29.72278
   Z343      21.22162  -0.00219   0.00000  -0.00058  -0.00081  21.22081
   X344      35.56465   0.00848   0.00000   0.00436   0.00452  35.56916
   Y344      20.31456  -0.01065   0.00000  -0.00333  -0.00366  20.31089
   Z344      41.30941  -0.01587   0.00000  -0.01040  -0.01080  41.29861
   X345      33.84500  -0.01216   0.00000  -0.00789  -0.00775  33.83725
   Y345      20.01220   0.00047   0.00000   0.00176   0.00137  20.01357
   Z345      41.76295   0.00501   0.00000   0.00409   0.00361  41.76656
   X346      36.05597   0.00090   0.00000  -0.00177  -0.00170  36.05427
   Y346      21.73185   0.01494   0.00000   0.01104   0.01070  21.74255
   Z346      42.31097   0.01105   0.00000   0.00788   0.00753  42.31850
   X347      42.63222   0.00834   0.00000   0.00861   0.00753  42.63976
   Y347      50.47459   0.01105   0.00000   0.00674   0.00649  50.48107
   Z347      50.43679   0.02194   0.00000   0.01815   0.01845  50.45524
   X348      42.12200  -0.00385   0.00000   0.00121   0.00022  42.12222
   Y348      49.62421  -0.00352   0.00000   0.00621   0.00596  49.63017
   Z348      48.92501  -0.01684   0.00000  -0.00932  -0.00906  48.91595
   X349      41.91413  -0.00177   0.00000  -0.00176  -0.00287  41.91125
   Y349      49.49193  -0.00270   0.00000  -0.00362  -0.00391  49.48802
   Z349      51.77850   0.00400   0.00000   0.00655   0.00680  51.78530
   X350      47.69669   0.00301   0.00000   0.00845   0.00794  47.70463
   Y350      30.85923  -0.00425   0.00000  -0.00770  -0.00781  30.85142
   Z350      49.51082  -0.00186   0.00000  -0.00089  -0.00060  49.51023
   X351      47.50771   0.00100   0.00000   0.00332   0.00287  47.51059
   Y351      29.08289  -0.00576   0.00000  -0.00798  -0.00808  29.07480
   Z351      49.18957  -0.00728   0.00000  -0.01135  -0.01109  49.17849
   X352      48.77383   0.00482   0.00000   0.00553   0.00495  48.77878
   Y352      30.93482   0.00131   0.00000   0.00047   0.00038  30.93519
   Z352      50.96591   0.00736   0.00000   0.00821   0.00856  50.97447
   X353      31.91747   0.00254   0.00000   0.00348   0.00407  31.92155
   Y353      21.75075  -0.02020   0.00000  -0.01195  -0.01226  21.73849
   Z353      31.14269   0.00619   0.00000   0.00701   0.00647  31.14915
   X354      31.86078  -0.00069   0.00000  -0.00128  -0.00074  31.86005
   Y354      23.54599   0.01734   0.00000   0.00916   0.00885  23.55484
   Z354      31.01041  -0.00275   0.00000  -0.00101  -0.00154  31.00887
   X355      32.31432  -0.00042   0.00000  -0.00140  -0.00071  32.31361
   Y355      21.18383   0.00300   0.00000   0.00392   0.00364  21.18747
   Z355      29.46083  -0.00126   0.00000  -0.00047  -0.00100  29.45983
   X356      31.72850   0.00419   0.00000   0.00365   0.00325  31.73175
   Y356      53.49815   0.00055   0.00000  -0.00059  -0.00094  53.49720
   Z356      34.12845  -0.01465   0.00000  -0.00916  -0.00933  34.11912
   X357      31.42615  -0.00134   0.00000   0.00169   0.00121  31.42735
   Y357      53.36587  -0.00183   0.00000  -0.00127  -0.00165  53.36422
   Z357      35.90480   0.01258   0.00000   0.00684   0.00666  35.91146
   X358      30.27341  -0.00278   0.00000  -0.00395  -0.00429  30.26912
   Y358      52.70446  -0.00061   0.00000  -0.00046  -0.00083  52.70363
   Z358      33.37256   0.00283   0.00000   0.00427   0.00403  33.37659
   X359      41.93302   0.00346   0.00000  -0.00200  -0.00298  41.93004
   Y359      37.58665   0.00400   0.00000   0.00579   0.00545  37.59210
   Z359      55.82251   0.01758   0.00000   0.01367   0.01379  55.83630
   X360      41.70626  -0.00024   0.00000   0.00352   0.00259  41.70884
   Y360      38.49372   0.00229   0.00000  -0.00196  -0.00228  38.49144
   Z360      54.27293  -0.01364   0.00000  -0.01011  -0.00999  54.26294
   X361      40.93147  -0.00391   0.00000   0.00018  -0.00075  40.93071
   Y361      36.09377  -0.00796   0.00000  -0.00580  -0.00617  36.08760
   Z361      55.63354  -0.00653   0.00000  -0.00843  -0.00838  55.62516
   X362      42.91568   0.00897   0.00000   0.00111   0.00151  42.91719
   Y362      20.33345  -0.01189   0.00000  -0.00823  -0.00830  20.32515
   Z362      36.03708   0.01412   0.00000   0.01734   0.01728  36.05436
   X363      41.29052  -0.00990   0.00000  -0.00373  -0.00330  41.28721
   Y363      20.59801   0.00773   0.00000   0.00815   0.00804  20.60605
   Z363      35.30008  -0.00723   0.00000  -0.00590  -0.00603  35.29406
   X364      43.67157  -0.00204   0.00000  -0.00380  -0.00345  43.66812
   Y364      21.97751   0.00570   0.00000   0.00301   0.00296  21.98047
   Z364      36.13156  -0.00889   0.00000  -0.01478  -0.01478  36.11678
   X365      51.85409   0.01617   0.00000   0.01194   0.01236  51.86645
   Y365      32.27652   0.00645   0.00000   0.00691   0.00717  32.28369
   Z365      28.76163   0.00964   0.00000   0.00888   0.00938  28.77102
   X366      50.32341  -0.01007   0.00000  -0.00488  -0.00442  50.31899
   Y366      31.46394   0.00495   0.00000   0.01268   0.01290  31.47684
   Z366      28.23251  -0.00443   0.00000  -0.00228  -0.00185  28.23066
   X367      51.75960  -0.00256   0.00000  -0.00199  -0.00158  51.75802
   Y367      33.93948  -0.00065   0.00000  -0.00124  -0.00097  33.93851
   Z367      28.02464  -0.00601   0.00000  -0.00947  -0.00895  28.01569
   X368      53.08241   0.00121   0.00000  -0.00541  -0.00574  53.07667
   Y368      30.59467  -0.01644   0.00000  -0.00866  -0.00858  30.58609
   Z368      45.71248   0.01243   0.00000   0.00618   0.00672  45.71920
   X369      54.49970  -0.00073   0.00000  -0.00338  -0.00375  54.49595
   Y369      31.65291   0.00276   0.00000  -0.00044  -0.00033  31.65258
   Z369      46.12821  -0.00083   0.00000  -0.00088  -0.00026  46.12796
   X370      52.08085  -0.00152   0.00000   0.00797   0.00767  52.08852
   Y370      31.59622   0.02198   0.00000   0.02357   0.02364  31.61986
   Z370      44.59754  -0.01548   0.00000  -0.01384  -0.01333  44.58421
   X371      25.77586  -0.00488   0.00000  -0.00194  -0.00177  25.77410
   Y371      23.52709  -0.01649   0.00000  -0.01225  -0.01282  23.51427
   Z371      39.07954  -0.00113   0.00000   0.00406   0.00325  39.08279
   X372      27.30654   0.00808   0.00000   0.00350   0.00366  27.31021
   Y372      24.45306   0.00719   0.00000   0.00438   0.00385  24.45691
   Z372      38.81497  -0.00077   0.00000  -0.00013  -0.00086  38.81411
   X373      24.75541  -0.00292   0.00000  -0.00147  -0.00137  24.75404
   Y373      24.62313   0.01128   0.00000   0.01307   0.01246  24.63559
   Z373      40.09999  -0.00030   0.00000  -0.00541  -0.00625  40.09374
   X374      50.75804  -0.01977   0.00000  -0.01900  -0.01902  50.73902
   Y374      46.35498   0.02149   0.00000   0.01280   0.01300  46.36799
   Z374      30.23562   0.00103   0.00000   0.00417   0.00479  30.24041
   X375      51.66511   0.01688   0.00000   0.01703   0.01697  51.68208
   Y375      45.31563  -0.01122   0.00000  -0.00374  -0.00353  45.31211
   Z375      31.40725   0.00731   0.00000  -0.00050   0.00016  31.40741
   X376      50.90922  -0.00067   0.00000  -0.00428  -0.00421  50.90501
   Y376      45.50461  -0.00825   0.00000  -0.00614  -0.00591  45.49870
   Z376      28.64825  -0.00463   0.00000   0.00108   0.00171  28.64995
   X377      33.65602  -0.01250   0.00000  -0.01128  -0.01066  33.64537
   Y377      39.98660  -0.00993   0.00000  -0.00707  -0.00720  39.97941
   Z377      20.03110  -0.01492   0.00000  -0.00918  -0.00942  20.02168
   X378      35.33788   0.00595   0.00000   0.00372   0.00438  35.34225
   Y378      39.49528   0.01070   0.00000   0.01894   0.01886  39.51414
   Z378      19.55867  -0.00217   0.00000  -0.00490  -0.00508  19.55359
   X379      33.86389   0.00798   0.00000   0.00833   0.00886  33.87275
   Y379      40.98816   0.01064   0.00000   0.00876   0.00862  40.99678
   Z379      21.52398   0.00934   0.00000   0.00099   0.00077  21.52475
   X380      25.71917   0.01138   0.00000   0.00891   0.00844  25.72761
   Y380      31.61512  -0.00551   0.00000  -0.00251  -0.00319  31.61192
   Z380      48.26361  -0.01217   0.00000  -0.00635  -0.00706  48.25654
   X381      23.94283  -0.01114   0.00000  -0.00545  -0.00592  23.93691
   Y381      31.35056  -0.00014   0.00000   0.00139   0.00066  31.35121
   Z381      48.43368   0.00136   0.00000   0.00011  -0.00069  48.43299
   X382      26.19160   0.00100   0.00000   0.00027  -0.00029  26.19131
   Y382      32.59778   0.00772   0.00000   0.00686   0.00617  32.60395
   Z382      49.69980   0.00985   0.00000   0.00674   0.00606  49.70586
   X383      54.76426  -0.00229   0.00000  -0.00222  -0.00244  54.76182
   Y383      36.64179  -0.00669   0.00000  -0.00652  -0.00633  36.63546
   Z383      40.04330   0.00286   0.00000  -0.00291  -0.00221  40.04109
   X384      55.93589   0.00237   0.00000   0.00390   0.00373  55.93962
   Y384      35.30008  -0.00173   0.00000  -0.00234  -0.00211  35.29798
   Z384      39.68425  -0.00145   0.00000  -0.00323  -0.00249  39.68176
   X385      55.00993  -0.00279   0.00000  -0.00582  -0.00601  55.00392
   Y385      37.83232   0.00756   0.00000   0.00666   0.00688  37.83920
   Z385      38.70159  -0.00650   0.00000  -0.00501  -0.00429  38.69730
         Item               Value     Threshold  Converged?
 Maximum Force            0.046147     0.000450     NO 
 RMS     Force            0.010537     0.000300     NO 
 Maximum Displacement     0.039002     0.001800     NO 
 RMS     Displacement     0.008846     0.001200     NO 
 Predicted change in Energy=-7.374059D-02
 GradGradGradGradGradGradGradGradGradGradGradGradGradGradGradGradGradGrad

 Leave Link  103 at Sat May  5 10:19:15 2018, MaxMem= 14763950080 cpu:      2840.8
 (Enter /cm/shared/gaussian/g09.e01/intel64-sandybridge/g09/l9999.exe)
 1\1\GINC-POPLE07\Force\RPBE1PBE\CC-pVDZ\Br1H256O128(1-)\M.PELUSO\05-Ma
 y-2018\0\\#p PBE1PBE/cc-pvDZ force Counterpoise=2 noSymm\\forces on ch
 loride comput - NWATER: 128\\-1,1\Br,20.,20.,20.\O,17.64,21.92,21.17\H
 ,18.04,22.77,21.34\H,18.32,21.42,20.72\O,18.13,21.24,17.63\H,17.94,22.
 15,17.83\H,18.56,20.9,18.42\O,21.81,21.37,17.73\H,21.24,21.35,18.49\H,
 22.7,21.28,18.09\O,17.77,18.46,21.98\H,18.44,18.59,21.31\H,18.05,19.02
 ,22.7\O,20.92,22.26,22.74\H,21.82,22.56,22.68\H,20.84,21.59,22.05\O,23
 .3,18.54,18.69\H,23.87,19.3,18.79\H,22.43,18.86,18.92\O,17.52,16.69,18
 .77\H,18.24,17.3,18.95\H,17.91,16.02,18.21\O,23.67,19.2,22.08\H,23.53,
 18.27,21.92\H,23.04,19.64,21.51\O,19.65,17.92,15.99\H,19.65,18.31,16.8
 7\H,19.13,18.52,15.46\O,23.77,21.29,19.36\H,23.48,21.59,20.23\H,24.27,
 22.03,19.02\O,19.99,21.63,15.29\H,20.36,21.44,16.15\H,19.07,21.4,15.37
 \O,15.65,18.77,19.65\H,15.93,19.13,20.49\H,16.31,18.11,19.43\O,20.22,2
 0.22,24.68\H,20.27,20.95,24.07\H,19.32,19.91,24.61\O,17.79,19.78,15.52
 \H,17.95,20.28,16.32\H,16.87,19.96,15.3\O,20.26,24.31,19.82\H,21.2,24.
 26,20.\H,19.86,24.34,20.69\O,19.,24.21,22.28\H,19.74,23.62,22.37\H,19.
 05,24.78,23.06\O,20.33,17.15,23.34\H,21.03,17.57,23.84\H,20.74,16.37,2
 2.96\O,18.07,24.05,18.45\H,17.94,24.69,17.75\H,18.81,24.39,18.95\O,15.
 02,21.17,21.64\H,15.31,20.97,22.53\H,15.77,21.58,21.23\O,23.26,23.12,2
 1.39\H,23.51,23.78,20.74\H,23.54,23.49,22.22\O,21.14,24.26,16.42\H,21.
 ,23.98,15.51\H,20.91,23.49,16.94\O,23.1,16.25,17.72\H,22.8,16.43,16.83
 \H,23.24,17.12,18.1\O,17.75,15.57,22.03\H,17.17,16.17,21.57\H,18.43,16
 .14,22.4\O,22.22,18.63,24.58\H,22.82,18.92,23.9\H,21.5,19.26,24.54\O,2
 3.86,16.51,21.14\H,23.43,16.59,20.29\H,23.6,15.64,21.45\O,15.51,23.07,
 18.54\H,15.37,22.13,18.41\H,16.47,23.16,18.58\O,20.73,15.05,18.13\H,21
 .12,14.18,18.24\H,21.48,15.65,18.1\O,23.18,21.19,15.01\H,22.61,21.35,1
 5.76\H,23.01,20.28,14.77\O,17.48,19.95,24.64\H,17.5,20.78,25.11\H,16.5
 6,19.85,24.38\O,14.61,20.09,17.63\H,14.82,19.6,18.42\H,14.97,19.56,16.
 92\O,18.94,17.58,25.82\H,18.62,18.21,26.47\H,19.28,18.12,25.11\O,21.87
 ,16.27,15.46\H,21.38,15.61,15.94\H,21.28,17.02,15.38\O,16.34,25.06,22.
 34\H,16.33,25.34,23.25\H,17.19,24.63,22.23\O,24.82,23.31,17.98\H,25.41
 ,23.71,18.62\H,25.32,23.34,17.16\O,13.4,19.08,21.75\H,13.93,19.86,21.8
 9\H,13.12,19.15,20.83\O,16.92,16.51,14.8\H,16.23,16.68,15.45\H,17.47,1
 7.29,14.83\O,23.67,25.35,20.03\H,23.59,25.42,19.08\H,23.31,26.17,20.36
 \O,26.82,17.17,19.51\H,25.89,17.27,19.72\H,27.27,17.32,20.34\O,19.46,1
 3.57,22.82\H,18.92,14.33,23.05\H,20.08,13.51,23.55\O,23.36,25.53,17.21
 \H,23.89,24.8,17.53\H,22.6,25.1,16.81\O,22.12,21.25,26.95\H,22.03,20.6
 6,26.2\H,23.01,21.61,26.87\O,15.49,15.81,16.92\H,16.01,15.01,16.89\H,1
 5.3,15.94,17.85\O,21.64,22.94,13.71\H,22.36,22.4,14.05\H,20.85,22.46,1
 3.93\O,15.94,13.94,19.38\H,15.98,14.76,19.88\H,16.76,13.5,19.57\O,22.7
 2,13.67,20.86\H,22.89,12.97,21.49\H,21.78,13.62,20.69\O,20.69,26.96,18
 .45\H,20.79,26.28,17.79\H,21.05,27.75,18.04\O,22.23,14.85,23.67\H,22.0
 4,14.24,24.38\H,23.18,14.95,23.67\O,17.6,14.47,16.3\H,18.54,14.44,16.4
 9\H,17.52,15.13,15.62\O,14.67,19.42,24.09\H,13.92,19.21,23.53\H,14.62,
 18.79,24.8\O,18.52,12.98,20.2\H,18.59,12.08,20.5\H,18.43,13.5,21.01\O,
 23.91,23.64,24.21\H,24.33,23.2,24.94\H,23.21,24.15,24.6\O,26.65,17.64,
 22.14\H,26.33,18.54,22.11\H,25.87,17.11,22.27\O,23.31,13.57,18.16\H,23
 .19,14.39,17.69\H,23.29,13.81,19.09\O,14.25,24.61,20.71\H,15.13,24.71,
 21.09\H,14.35,23.95,20.03\O,17.62,15.35,25.34\H,16.72,15.27,25.66\H,17
 .8,16.29,25.38\O,19.77,27.39,20.87\H,18.83,27.53,20.85\H,19.98,26.99,2
 0.02\O,14.22,16.19,22.7\H,14.08,15.98,23.63\H,14.14,17.14,22.65\O,17.6
 ,25.58,16.26\H,17.57,26.53,16.21\H,18.32,25.34,15.67\O,20.98,17.85,12.
 79\H,20.41,17.08,12.72\H,20.39,18.55,13.08\O,20.18,14.64,25.7\H,19.27,
 14.79,25.45\H,20.66,15.38,25.33\O,26.56,21.96,23.93\H,25.64,21.72,23.9
 3\H,26.62,22.73,24.49\O,26.06,21.47,15.5\H,25.14,21.74,15.42\H,26.13,2
 0.72,14.9\O,21.94,25.96,24.28\H,21.04,25.63,24.23\H,21.9,26.81,23.83\O
 ,18.2,22.91,12.95\H,17.37,23.37,13.13\H,18.75,23.12,13.71\O,12.52,21.4
 8,17.42\H,12.64,22.31,17.88\H,13.37,21.05,17.49\O,16.15,13.51,22.96\H,
 15.82,14.1,23.64\H,16.91,13.96,22.59\O,22.8,17.01,27.13\H,22.35,17.5,2
 6.45\H,23.66,16.8,26.75\O,19.19,25.67,24.58\H,18.59,25.2,25.16\H,18.93
 ,26.59,24.66\O,14.11,24.57,16.47\H,14.92,24.49,16.97\H,13.42,24.39,17.
 1\O,19.38,21.35,27.84\H,20.19,21.34,27.33\H,18.82,21.98,27.37\O,18.95,
 19.6,12.51\H,18.17,20.12,12.72\H,19.03,19.65,11.56\O,27.55,22.56,21.45
 \H,27.09,22.21,22.21\H,26.88,23.,20.94\O,14.4,18.59,15.11\H,13.48,18.4
 9,14.85\H,14.81,19.07,14.39\O,19.56,11.84,17.93\H,18.93,11.17,18.21\H,
 19.42,12.57,18.53\O,26.39,24.57,20.\H,27.15,25.14,20.16\H,25.64,25.14,
 20.13\O,25.02,15.97,14.54\H,25.38,15.26,15.07\H,24.09,16.,14.77\O,16.9
 1,27.65,21.41\H,16.47,26.81,21.24\H,16.6,27.92,22.27\O,11.93,19.87,19.
 44\H,11.45,20.69,19.54\H,12.32,19.93,18.57\O,23.73,18.63,13.19\H,24.03
 ,17.83,13.62\H,22.97,18.35,12.66\O,25.73,18.7,25.21\H,25.68,17.76,25.3
 4\H,26.51,18.82,24.67\O,24.64,21.12,26.42\H,25.21,21.38,27.14\H,25.05,
 20.32,26.08\O,16.94,24.21,25.97\H,16.41,24.97,26.23\H,16.43,23.45,26.2
 6\O,28.11,19.23,17.88\H,27.44,19.09,17.21\H,28.,18.49,18.49\O,24.98,26
 .63,22.65\H,24.11,26.28,22.87\H,24.81,27.25,21.94\O,26.65,14.15,19.22\
 H,26.37,15.02,19.5\H,26.09,13.54,19.71\O,19.45,25.73,14.29\H,20.4,25.7
 3,14.21\H,19.14,26.12,13.47\O,15.5,23.53,14.17\H,15.46,24.47,13.96\H,1
 4.69,23.36,14.64\O,20.58,13.11,15.49\H,20.21,12.71,16.28\H,20.51,12.43
 ,14.82\O,15.6,20.84,13.11\H,15.06,21.62,13.23\H,14.97,20.13,13.01\O,19
 .,15.9,28.14\H,19.15,16.45,27.37\H,19.09,15.01,27.81\O,24.2,23.9,13.54
 \H,23.25,24.06,13.56\H,24.57,24.75,13.29\O,21.35,28.16,22.99\H,21.87,2
 8.95,22.92\H,21.09,27.95,22.09\O,21.95,14.44,12.91\H,21.46,15.01,13.51
 \H,21.54,13.59,13.\O,14.79,19.36,26.92\H,15.17,20.24,26.95\H,15.3,18.8
 5,27.56\O,28.22,19.89,23.76\H,28.48,19.73,22.85\H,27.6,20.62,23.71\O,2
 7.99,22.53,17.28\H,28.62,21.9,17.63\H,27.51,22.06,16.6\O,25.67,14.74,2
 3.57\H,25.94,13.82,23.66\H,26.48,15.23,23.71\O,12.21,15.06,21.26\H,11.
 98,15.46,20.43\H,12.85,15.67,21.65\O,12.6,16.16,16.14\H,13.37,16.61,15
 .81\H,11.86,16.56,15.68\O,12.42,23.19,24.48\H,13.14,22.56,24.42\H,11.7
 ,22.68,24.85\O,11.92,24.31,22.16\H,12.76,24.32,21.7\H,12.14,24.05,23.0
 5\O,23.21,12.66,15.62\H,23.59,13.04,16.41\H,22.29,12.9,15.65\O,16.45,1
 5.,12.55\H,16.07,15.64,11.95\H,16.75,15.52,13.3\O,23.52,28.02,19.93\H,
 22.83,28.38,19.37\H,24.16,27.66,19.31\O,25.95,27.1,18.5\H,25.86,27.35,
 17.58\H,26.03,26.15,18.48\O,13.99,13.46,17.21\H,13.91,14.4,17.04\H,14.
 44,13.42,18.06\O,26.44,19.55,13.24\H,26.56,20.34,12.71\H,25.5,19.36,13
 .16\O,18.78,19.2,29.21\H,19.13,19.97,28.76\H,19.11,19.28,30.11\O,15.34
 ,22.27,27.13\H,15.55,22.53,28.02\H,14.4,22.41,27.05\O,10.59,18.32,21.1
 1\H,10.51,18.97,20.41\H,11.48,17.97,21.01\O,22.6,20.94,10.79\H,22.63,2
 1.35,11.65\H,23.04,21.55,10.2\O,12.22,21.61,14.78\H,12.03,22.54,14.68\
 H,12.39,21.5,15.72\O,20.67,23.3,10.91\H,21.07,23.1,11.76\H,20.84,24.23
 ,10.78\O,19.16,16.,12.12\H,18.3,15.59,12.27\H,19.4,15.73,11.23\O,18.82
 ,10.75,21.86\H,17.91,10.59,22.1\H,19.08,11.5,22.39\O,22.56,26.71,26.69
 \H,22.29,26.26,25.89\H,22.18,26.19,27.4\O,25.24,16.33,26.2\H,25.14,15.
 39,26.03\H,25.81,16.37,26.97\O,16.89,11.51,16.48\H,16.86,12.46,16.41\H
 ,17.1,11.21,15.59\O,16.79,28.31,18.06\H,16.63,28.24,19.\H,16.02,27.89,
 17.66\O,22.19,19.89,29.54\H,22.07,20.37,28.72\H,21.66,19.1,29.44\O,22.
 71,10.76,19.07\H,21.85,10.9,18.68\H,23.11,11.63,19.12\O,27.44,17.08,15
 .22\H,26.63,16.65,14.94\H,27.39,17.96,14.83\O,28.09,16.19,24.19\H,28.8
 4,16.75,24.41\H,27.56,16.72,23.6\O,13.64,12.45,20.68\H,14.45,12.94,20.
 54\H,13.1,13.03,21.22\O,26.86,24.53,16.\H,27.34,23.98,16.62\H,26.94,24
 .08,15.16\O,17.81,21.16,10.6\H,18.7,20.9,10.35\H,17.92,21.69,11.39\O,1
 3.61,16.73,25.54\H,12.67,16.59,25.63\H,13.86,17.25,26.3\O,28.98,19.39,
 21.19\H,29.6,18.68,21.\H,29.11,20.02,20.48\\Version=ES64L-G09RevE.01\H
 F=-9773.3425311\RMSD=1.188e-09\RMSF=1.054e-02\Dipole=-1.1772041,16.082
 8547,5.4757512\Quadrupole=-685.7982075,700.0041601,-14.2059526,-918.77
 83149,-1269.9846259,-653.1570843\PG=C01 [X(Br1H256O128)]\\@


 SILVERMAN'S PARADOX - IF MURPHY'S LAW CAN GO WRONG, IT WILL.
 Job cpu time:       6 days 22 hours 49 minutes 57.3 seconds.
 File lengths (MBytes):  RWF=   7285 Int=      0 D2E=      0 Chk=   2411 Scr=      1
 Normal termination of Gaussian 09 at Sat May  5 10:19:41 2018.
