 Entering Gaussian System, Link 0=/cm/shared/gaussian/g09.e01/intel64-sandybridge/g09/g09
 Initial command:
 /cm/shared/gaussian/g09.e01/intel64-sandybridge/g09/l1.exe "/local/scratch/m.peluso/128_wat/370/Gau-50714.inp" -scrdir="/local/scratch/m.peluso/128_wat/370/"
 Entering Link 1 = /cm/shared/gaussian/g09.e01/intel64-sandybridge/g09/l1.exe PID=     50715.
  
 Copyright (c) 1988,1990,1992,1993,1995,1998,2003,2009,2015,
            Gaussian, Inc.  All Rights Reserved.
  
 This is part of the Gaussian(R) 09 program.  It is based on
 the Gaussian(R) 03 system (copyright 2003, Gaussian, Inc.),
 the Gaussian(R) 98 system (copyright 1998, Gaussian, Inc.),
 the Gaussian(R) 94 system (copyright 1995, Gaussian, Inc.),
 the Gaussian 92(TM) system (copyright 1992, Gaussian, Inc.),
 the Gaussian 90(TM) system (copyright 1990, Gaussian, Inc.),
 the Gaussian 88(TM) system (copyright 1988, Gaussian, Inc.),
 the Gaussian 86(TM) system (copyright 1986, Carnegie Mellon
 University), and the Gaussian 82(TM) system (copyright 1983,
 Carnegie Mellon University). Gaussian is a federally registered
 trademark of Gaussian, Inc.
  
 This software contains proprietary and confidential information,
 including trade secrets, belonging to Gaussian, Inc.
  
 This software is provided under written license and may be
 used, copied, transmitted, or stored only in accord with that
 written license.
  
 The following legend is applicable only to US Government
 contracts under FAR:
  
                    RESTRICTED RIGHTS LEGEND
  
 Use, reproduction and disclosure by the US Government is
 subject to restrictions as set forth in subparagraphs (a)
 and (c) of the Commercial Computer Software - Restricted
 Rights clause in FAR 52.227-19.
  
 Gaussian, Inc.
 340 Quinnipiac St., Bldg. 40, Wallingford CT 06492
  
  
 ---------------------------------------------------------------
 Warning -- This program may not be used in any manner that
 competes with the business of Gaussian, Inc. or will provide
 assistance to any competitor of Gaussian, Inc.  The licensee
 of this program is prohibited from giving any competitor of
 Gaussian, Inc. access to this program.  By using this program,
 the user acknowledges that Gaussian, Inc. is engaged in the
 business of creating and licensing software in the field of
 computational chemistry and represents and warrants to the
 licensee that it is not a competitor of Gaussian, Inc. and that
 it will not use this program in any manner prohibited above.
 ---------------------------------------------------------------
  

 Cite this work as:
 Gaussian 09, Revision E.01,
 M. J. Frisch, G. W. Trucks, H. B. Schlegel, G. E. Scuseria, 
 M. A. Robb, J. R. Cheeseman, G. Scalmani, V. Barone, B. Mennucci, 
 G. A. Petersson, H. Nakatsuji, M. Caricato, X. Li, H. P. Hratchian, 
 A. F. Izmaylov, J. Bloino, G. Zheng, J. L. Sonnenberg, M. Hada, 
 M. Ehara, K. Toyota, R. Fukuda, J. Hasegawa, M. Ishida, T. Nakajima, 
 Y. Honda, O. Kitao, H. Nakai, T. Vreven, J. A. Montgomery, Jr., 
 J. E. Peralta, F. Ogliaro, M. Bearpark, J. J. Heyd, E. Brothers, 
 K. N. Kudin, V. N. Staroverov, T. Keith, R. Kobayashi, J. Normand, 
 K. Raghavachari, A. Rendell, J. C. Burant, S. S. Iyengar, J. Tomasi, 
 M. Cossi, N. Rega, J. M. Millam, M. Klene, J. E. Knox, J. B. Cross, 
 V. Bakken, C. Adamo, J. Jaramillo, R. Gomperts, R. E. Stratmann, 
 O. Yazyev, A. J. Austin, R. Cammi, C. Pomelli, J. W. Ochterski, 
 R. L. Martin, K. Morokuma, V. G. Zakrzewski, G. A. Voth, 
 P. Salvador, J. J. Dannenberg, S. Dapprich, A. D. Daniels, 
 O. Farkas, J. B. Foresman, J. V. Ortiz, J. Cioslowski, 
 and D. J. Fox, Gaussian, Inc., Wallingford CT, 2013.
 
 ******************************************
 Gaussian 09:  ES64L-G09RevE.01 30-Nov-2015
                 8-May-2018 
 ******************************************
 %Mem=110GB
 %NProcShared=64
 Will use up to   64 processors via shared memory.
 %chk=snap86.chk
 ----------------------------------------------
 #p PBE1PBE/cc-pvDZ force Counterpoise=2 noSymm
 ----------------------------------------------
 1/10=7,30=1,38=1,62=2/1,3;
 2/12=2,15=1,17=6,18=5,40=1/2;
 1/10=7,30=1,38=1,53=2,62=2,63=101/22;
 3/5=16,11=2,16=1,25=1,30=1,71=1,74=-13/1,2,3;
 4//1;
 5/5=2,38=5/2;
 6/7=2,8=2,9=2,10=2,28=1/1;
 7/7=1,29=1,30=1,33=-1/1,2,3,16;
 1/10=7,30=1,53=2,62=2,63=101/22;
 3/5=7,6=11,11=2,16=1,25=1,30=1,71=1,74=-13,82=7/1,2,3;
 4//1;
 5/5=2,38=5/2;
 6/7=2,8=2,9=2,10=2,28=1/1;
 7/7=1,29=1,30=1,33=-1/1,2,3,16;
 1/10=7,30=1,53=2,62=2,63=101/22(-5);
 7/9=1,29=1,44=-1/16;
 1/10=7,30=1,62=2/3;
 99//99;
 Leave Link    1 at Tue May  8 04:33:29 2018, MaxMem= 14763950080 cpu:         6.0
 (Enter /cm/shared/gaussian/g09.e01/intel64-sandybridge/g09/l101.exe)
 ---------------------------------------
 forces on chloride comput - NWATER: 128
 ---------------------------------------
 Symbolic Z-matrix:
 Charge = -1 Multiplicity = 1 in supermolecule
 Charge = -1 Multiplicity = 1 in fragment      1.
 Charge =  0 Multiplicity = 1 in fragment      2.
 Br(Fragment=1)        20.       20.       20. 
 O(Fragment=2)         22.59     21.7      20.88 
 H(Fragment=2)         22.83     21.17     21.64 
 H(Fragment=2)         21.9      21.19     20.44 
 O(Fragment=2)         21.14     17.02     21.2 
 H(Fragment=2)         21.35     17.3      22.09 
 H(Fragment=2)         20.93     17.83     20.73 
 O(Fragment=2)         19.9      22.62     17.7 
 H(Fragment=2)         19.76     22.01     18.42 
 H(Fragment=2)         19.31     22.32     17.01 
 O(Fragment=2)         17.25     21.35     18.41 
 H(Fragment=2)         17.96     21.26     19.05 
 H(Fragment=2)         16.47     21.54     18.93 
 O(Fragment=2)         19.41     22.13     23.02 
 H(Fragment=2)         19.68     21.28     22.68 
 H(Fragment=2)         20.06     22.35     23.68 
 O(Fragment=2)         18.18     16.91     21.79 
 H(Fragment=2)         18.9      17.25     21.26 
 H(Fragment=2)         18.55     16.83     22.67 
 O(Fragment=2)         23.46     18.89     18.05 
 H(Fragment=2)         22.85     19.55     18.38 
 H(Fragment=2)         23.45     19.02     17.1 
 O(Fragment=2)         16.27     19.2      22.04 
 H(Fragment=2)         17.05     19.09     21.49 
 H(Fragment=2)         16.46     18.68     22.83 
 O(Fragment=2)         20.31     19.17     15.79 
 H(Fragment=2)         20.84     18.39     15.93 
 H(Fragment=2)         20.49     19.72     16.55 
 O(Fragment=2)         16.59     22.08     21.35 
 H(Fragment=2)         17.52     22.18     21.53 
 H(Fragment=2)         16.32     21.32     21.87 
 O(Fragment=2)         18.78     24.34     19.5 
 H(Fragment=2)         19.45     24.97     19.27 
 H(Fragment=2)         18.98     23.57     18.97 
 O(Fragment=2)         17.91     16.26     18.52 
 H(Fragment=2)         17.71     17.19     18.62 
 H(Fragment=2)         18.86     16.21     18.67 
 O(Fragment=2)         18.27     20.9      15.86 
 H(Fragment=2)         17.9      20.97     16.74 
 H(Fragment=2)         18.39     19.96     15.73 
 O(Fragment=2)         20.61     15.59     18.81 
 H(Fragment=2)         21.       16.12     19.51 
 H(Fragment=2)         20.76     14.69     19.08 
 O(Fragment=2)         21.8      24.01     22.3 
 H(Fragment=2)         21.3      23.24     22.04 
 H(Fragment=2)         22.72     23.77     22.14 
 O(Fragment=2)         23.36     20.23     22.94 
 H(Fragment=2)         22.9      19.4      22.85 
 H(Fragment=2)         24.06     20.05     23.57 
 O(Fragment=2)         22.45     21.54     16.78 
 H(Fragment=2)         21.69     21.96     16.37 
 H(Fragment=2)         22.85     22.24     17.3 
 O(Fragment=2)         23.72     23.28     18.76 
 H(Fragment=2)         23.37     24.18     18.81 
 H(Fragment=2)         23.32     22.83     19.5 
 O(Fragment=2)         22.44     17.57     23.78 
 H(Fragment=2)         22.38     16.75     24.26 
 H(Fragment=2)         21.62     18.03     23.97 
 O(Fragment=2)         20.18     18.95     24.6 
 H(Fragment=2)         20.59     19.79     24.82 
 H(Fragment=2)         19.27     19.04     24.9 
 O(Fragment=2)         21.7      21.18     24.72 
 H(Fragment=2)         21.99     21.89     25.3 
 H(Fragment=2)         22.4      21.09     24.08 
 O(Fragment=2)         20.9      16.55     16. 
 H(Fragment=2)         20.16     16.47     15.4 
 H(Fragment=2)         20.57     16.24     16.84 
 O(Fragment=2)         25.07     16.96     19.32 
 H(Fragment=2)         24.82     16.46     20.1 
 H(Fragment=2)         24.31     17.51     19.14 
 O(Fragment=2)         14.35     19.25     19.64 
 H(Fragment=2)         15.06     18.81     20.1 
 H(Fragment=2)         13.96     19.82     20.3 
 O(Fragment=2)         15.93     15.86     21. 
 H(Fragment=2)         16.18     15.55     20.13 
 H(Fragment=2)         16.73     16.25     21.36 
 O(Fragment=2)         20.7      23.45     15.16 
 H(Fragment=2)         20.64     24.35     14.84 
 H(Fragment=2)         20.06     23.4      15.86 
 O(Fragment=2)         23.92     15.67     21.28 
 H(Fragment=2)         24.55     15.45     21.96 
 H(Fragment=2)         23.16     16.       21.76 
 O(Fragment=2)         18.13     25.1      22.52 
 H(Fragment=2)         17.18     25.11     22.47 
 H(Fragment=2)         18.42     25.04     21.61 
 O(Fragment=2)         17.45     18.67     24.86 
 H(Fragment=2)         17.34     19.15     25.68 
 H(Fragment=2)         17.58     17.76     25.13 
 O(Fragment=2)         16.64     23.55     15.69 
 H(Fragment=2)         15.79     23.11     15.69 
 H(Fragment=2)         16.99     23.4      16.57 
 O(Fragment=2)         20.85     20.25     13.43 
 H(Fragment=2)         21.75     20.35     13.74 
 H(Fragment=2)         20.35     20.02     14.21 
 O(Fragment=2)         25.65     21.46     17.74 
 H(Fragment=2)         25.17     22.04     18.33 
 H(Fragment=2)         25.54     20.59     18.11 
 O(Fragment=2)         19.3      16.28     24.59 
 H(Fragment=2)         19.33     15.57     25.22 
 H(Fragment=2)         19.8      16.99     25. 
 O(Fragment=2)         16.39     25.72     19.74 
 H(Fragment=2)         16.94     24.97     19.56 
 H(Fragment=2)         15.66     25.37     20.25 
 O(Fragment=2)         17.57     23.86     24.9 
 H(Fragment=2)         17.62     22.98     24.54 
 H(Fragment=2)         18.03     24.41     24.26 
 O(Fragment=2)         15.31     24.49     22.1 
 H(Fragment=2)         14.65     24.21     22.73 
 H(Fragment=2)         15.63     23.68     21.7 
 O(Fragment=2)         21.24     26.78     21.7 
 H(Fragment=2)         22.17     26.96     21.53 
 H(Fragment=2)         21.16     25.83     21.57 
 O(Fragment=2)         21.45     25.18     24.5 
 H(Fragment=2)         21.59     24.68     23.69 
 H(Fragment=2)         20.5      25.23     24.6 
 O(Fragment=2)         23.76     21.21     14.34 
 H(Fragment=2)         23.96     22.1      14.05 
 H(Fragment=2)         23.88     21.23     15.29 
 O(Fragment=2)         23.48     18.56     15.03 
 H(Fragment=2)         23.7      19.36     14.56 
 H(Fragment=2)         22.96     18.05     14.4 
 O(Fragment=2)         17.84     16.7      15.15 
 H(Fragment=2)         17.83     15.79     15.44 
 H(Fragment=2)         18.18     16.66     14.25 
 O(Fragment=2)         14.46     19.7      24.34 
 H(Fragment=2)         13.51     19.67     24.28 
 H(Fragment=2)         14.76     19.53     23.44 
 O(Fragment=2)         22.65     25.21     17.19 
 H(Fragment=2)         23.15     25.1      16.38 
 H(Fragment=2)         21.74     25.31     16.9 
 O(Fragment=2)         22.61     13.47     19.66 
 H(Fragment=2)         23.28     12.81     19.84 
 H(Fragment=2)         22.93     14.27     20.08 
 O(Fragment=2)         23.79     18.35     26.05 
 H(Fragment=2)         24.35     17.58     26.18 
 H(Fragment=2)         23.58     18.33     25.12 
 O(Fragment=2)         19.21     13.14     20.99 
 H(Fragment=2)         20.06     13.53     21.21 
 H(Fragment=2)         19.38     12.21     20.93 
 O(Fragment=2)         15.74     18.18     14.29 
 H(Fragment=2)         16.41     17.74     14.81 
 H(Fragment=2)         15.16     18.58     14.93 
 O(Fragment=2)         22.97     14.38     15.69 
 H(Fragment=2)         22.36     15.11     15.84 
 H(Fragment=2)         22.93     14.22     14.75 
 O(Fragment=2)         13.48     16.74     21.19 
 H(Fragment=2)         13.33     17.32     20.44 
 H(Fragment=2)         14.32     16.32     21. 
 O(Fragment=2)         24.8      14.54     17.83 
 H(Fragment=2)         24.77     15.45     18.11 
 H(Fragment=2)         24.03     14.43     17.27 
 O(Fragment=2)         15.42     15.05     16.64 
 H(Fragment=2)         16.09     15.04     17.32 
 H(Fragment=2)         15.02     15.92     16.71 
 O(Fragment=2)         14.02     17.55     17.22 
 H(Fragment=2)         13.73     18.22     17.84 
 H(Fragment=2)         13.28     17.42     16.63 
 O(Fragment=2)         27.25     21.01     21.44 
 H(Fragment=2)         26.79     20.18     21.55 
 H(Fragment=2)         27.85     20.86     20.71 
 O(Fragment=2)         18.98     19.88     27.01 
 H(Fragment=2)         18.98     20.84     27.05 
 H(Fragment=2)         19.9      19.63     27.03 
 O(Fragment=2)         16.74     20.49     12.7 
 H(Fragment=2)         16.88     19.93     11.94 
 H(Fragment=2)         17.16     20.03     13.43 
 O(Fragment=2)         13.19     20.84     22.11 
 H(Fragment=2)         13.1      21.74     21.81 
 H(Fragment=2)         12.29     20.49     22.07 
 O(Fragment=2)         25.8      23.92     16.4 
 H(Fragment=2)         25.6      24.46     17.16 
 H(Fragment=2)         25.72     23.02     16.72 
 O(Fragment=2)         17.09     13.16     22.86 
 H(Fragment=2)         17.21     12.21     22.94 
 H(Fragment=2)         17.85     13.45     22.35 
 O(Fragment=2)         25.16     25.77     18.29 
 H(Fragment=2)         25.38     26.7      18.22 
 H(Fragment=2)         24.2      25.75     18.34 
 O(Fragment=2)         21.46     18.49     27.55 
 H(Fragment=2)         22.24     18.56     27. 
 H(Fragment=2)         21.73     18.82     28.4 
 O(Fragment=2)         16.89     23.11     13.07 
 H(Fragment=2)         16.89     23.28     14.01 
 H(Fragment=2)         16.63     22.19     12.99 
 O(Fragment=2)         26.79     23.25     22.49 
 H(Fragment=2)         26.96     23.85     21.77 
 H(Fragment=2)         26.82     22.38     22.1 
 O(Fragment=2)         18.14     27.38     18.47 
 H(Fragment=2)         17.95     28.32     18.47 
 H(Fragment=2)         17.43     27.       18.99 
 O(Fragment=2)         20.71     27.73     19.11 
 H(Fragment=2)         19.86     27.44     18.79 
 H(Fragment=2)         20.67     27.61     20.06 
 O(Fragment=2)         12.93     23.37     20.79 
 H(Fragment=2)         13.03     22.91     19.96 
 H(Fragment=2)         13.31     24.24     20.64 
 O(Fragment=2)         19.1      12.69     17.24 
 H(Fragment=2)         18.84     12.94     16.35 
 H(Fragment=2)         20.03     12.93     17.29 
 O(Fragment=2)         14.96     15.28     23.93 
 H(Fragment=2)         15.33     14.91     23.13 
 H(Fragment=2)         14.1      15.61     23.66 
 O(Fragment=2)         18.79     22.64     27.49 
 H(Fragment=2)         18.08     22.94     28.06 
 H(Fragment=2)         18.83     23.29     26.79 
 O(Fragment=2)         14.8      23.77     25.11 
 H(Fragment=2)         15.65     24.06     24.8 
 H(Fragment=2)         15.       23.14     25.8 
 O(Fragment=2)         25.52     16.76     14.31 
 H(Fragment=2)         25.35     16.85     13.37 
 H(Fragment=2)         24.79     17.21     14.73 
 O(Fragment=2)         16.       13.4      18.99 
 H(Fragment=2)         15.62     13.23     18.12 
 H(Fragment=2)         16.9      13.07     18.92 
 O(Fragment=2)         27.87     16.84     18.57 
 H(Fragment=2)         26.98     17.03     18.87 
 H(Fragment=2)         28.12     16.04     19.04 
 O(Fragment=2)         13.89     24.26     18.08 
 H(Fragment=2)         13.74     23.81     17.25 
 H(Fragment=2)         13.31     25.02     18.05 
 O(Fragment=2)         20.7      22.68     11.92 
 H(Fragment=2)         20.28     23.43     12.35 
 H(Fragment=2)         20.7      21.99     12.59 
 O(Fragment=2)         26.39     19.77     14.93 
 H(Fragment=2)         26.54     20.01     15.84 
 H(Fragment=2)         26.27     18.82     14.94 
 O(Fragment=2)         22.95     22.74     26.63 
 H(Fragment=2)         22.16     23.04     27.07 
 H(Fragment=2)         23.36     23.54     26.29 
 O(Fragment=2)         18.61     27.93     22.1 
 H(Fragment=2)         19.1      27.26     22.58 
 H(Fragment=2)         19.28     28.55     21.82 
 O(Fragment=2)         19.52     26.74     15.78 
 H(Fragment=2)         19.36     27.48     15.19 
 H(Fragment=2)         18.9      26.87     16.5 
 O(Fragment=2)         21.75     15.6      26.19 
 H(Fragment=2)         21.02     14.99     26.18 
 H(Fragment=2)         21.47     16.3      26.78 
 O(Fragment=2)         25.46     25.41     23.35 
 H(Fragment=2)         25.55     24.47     23.2 
 H(Fragment=2)         25.67     25.53     24.27 
 O(Fragment=2)         15.01     19.97     26.94 
 H(Fragment=2)         14.82     20.04     26. 
 H(Fragment=2)         14.18     20.21     27.37 
 O(Fragment=2)         26.95     20.06     24.52 
 H(Fragment=2)         26.9      20.73     23.84 
 H(Fragment=2)         27.58     19.42     24.19 
 O(Fragment=2)         22.78     16.9      13.17 
 H(Fragment=2)         23.11     16.04     12.91 
 H(Fragment=2)         21.85     16.9      12.92 
 O(Fragment=2)         13.59     22.7      15.42 
 H(Fragment=2)         13.48     21.81     15.75 
 H(Fragment=2)         12.74     23.12     15.55 
 O(Fragment=2)         18.8      25.07     13.15 
 H(Fragment=2)         18.28     24.34     13.48 
 H(Fragment=2)         18.46     25.84     13.61 
 O(Fragment=2)         26.75     25.4      20.57 
 H(Fragment=2)         26.5      26.31     20.72 
 H(Fragment=2)         26.19     25.11     19.84 
 O(Fragment=2)         21.93     11.77     17.62 
 H(Fragment=2)         21.52     11.04     18.09 
 H(Fragment=2)         22.12     12.42     18.31 
 O(Fragment=2)         27.24     15.28     21.16 
 H(Fragment=2)         26.73     14.94     21.89 
 H(Fragment=2)         27.04     16.22     21.16 
 O(Fragment=2)         21.51     12.48     22.54 
 H(Fragment=2)         21.83     11.65     22.19 
 H(Fragment=2)         21.47     12.34     23.49 
 O(Fragment=2)         27.7      18.       21.5 
 H(Fragment=2)         28.51     17.59     21.21 
 H(Fragment=2)         27.94     18.48     22.29 
 O(Fragment=2)         24.23     24.09     13.98 
 H(Fragment=2)         24.71     24.07     14.81 
 H(Fragment=2)         24.41     24.95     13.62 
 O(Fragment=2)         25.68     15.16     23.24 
 H(Fragment=2)         26.18     15.62     23.91 
 H(Fragment=2)         25.28     14.43     23.71 
 O(Fragment=2)         27.83     19.37     17.8 
 H(Fragment=2)         28.15     19.86     18.55 
 H(Fragment=2)         28.01     18.45     18.02 
 O(Fragment=2)         12.23     17.97     23.3 
 H(Fragment=2)         12.61     17.61     22.5 
 H(Fragment=2)         11.65     18.66     23. 
 O(Fragment=2)         13.9      17.05     26.18 
 H(Fragment=2)         14.39     17.58     25.55 
 H(Fragment=2)         14.38     16.23     26.23 
 O(Fragment=2)         19.6      16.2      12.66 
 H(Fragment=2)         19.82     16.29     11.73 
 H(Fragment=2)         19.5      15.26     12.8 
 O(Fragment=2)         23.81     13.19     24.11 
 H(Fragment=2)         23.32     12.82     24.84 
 H(Fragment=2)         23.22     13.1      23.36 
 O(Fragment=2)         25.05     20.9      27.44 
 H(Fragment=2)         25.03     20.4      26.62 
 H(Fragment=2)         24.61     21.72     27.23 
 O(Fragment=2)         14.8      25.07     14.21 
 H(Fragment=2)         13.91     24.77     14.36 
 H(Fragment=2)         15.33     24.6      14.86 
 O(Fragment=2)         16.69     27.13     23.86 
 H(Fragment=2)         17.23     27.33     23.1 
 H(Fragment=2)         16.8      27.88     24.44 
 O(Fragment=2)         16.48     13.83     25.53 
 H(Fragment=2)         17.09     13.41     24.93 
 H(Fragment=2)         16.02     14.48     24.99 
 O(Fragment=2)         14.82     12.72     21.31 
 H(Fragment=2)         15.62     12.98     21.77 
 H(Fragment=2)         14.87     13.19     20.47 
 O(Fragment=2)         22.79     25.81     26.8 
 H(Fragment=2)         22.54     25.51     25.93 
 H(Fragment=2)         22.2      26.55     26.98 
 O(Fragment=2)         13.06     19.95     15.12 
 H(Fragment=2)         12.37     19.62     15.69 
 H(Fragment=2)         12.63     20.07     14.27 
 O(Fragment=2)         17.12     20.52     28.91 
 H(Fragment=2)         16.41     20.87     28.37 
 H(Fragment=2)         17.8      20.27     28.28 
 O(Fragment=2)         21.81     28.11     15.72 
 H(Fragment=2)         21.13     27.51     16.02 
 H(Fragment=2)         22.63     27.65     15.9 
 O(Fragment=2)         10.79     20.2      19.51 
 H(Fragment=2)         10.04     20.63     19.92 
 H(Fragment=2)         11.34     19.93     20.24 
 O(Fragment=2)         15.19     28.19     20.47 
 H(Fragment=2)         15.64     28.95     20.1 
 H(Fragment=2)         15.56     27.44     19.99 
 O(Fragment=2)         19.52     14.06     26.32 
 H(Fragment=2)         19.09     13.22     26.13 
 H(Fragment=2)         18.91     14.5      26.92 
 O(Fragment=2)         20.48     18.34     10.6 
 H(Fragment=2)         19.6      18.49     10.26 
 H(Fragment=2)         20.56     18.96     11.33 
 O(Fragment=2)         16.3      17.54     28.09 
 H(Fragment=2)         16.26     17.74     29.03 
 H(Fragment=2)         16.08     18.36     27.66 
 O(Fragment=2)         17.33     16.63     11.49 
 H(Fragment=2)         18.05     16.63     12.12 
 H(Fragment=2)         16.75     15.92     11.79 
 O(Fragment=2)         23.05     29.16     18.65 
 H(Fragment=2)         22.45     28.42     18.77 
 H(Fragment=2)         22.75     29.81     19.29 
 O(Fragment=2)         11.77     15.2      22.34 
 H(Fragment=2)         12.48     15.78     22.07 
 H(Fragment=2)         11.       15.76     22.37 
 O(Fragment=2)         21.1      23.68     28.21 
 H(Fragment=2)         21.01     24.44     28.79 
 H(Fragment=2)         20.25     23.24     28.26 
 O(Fragment=2)         24.64     28.       22.64 
 H(Fragment=2)         24.52     27.1      22.92 
 H(Fragment=2)         25.34     27.96     21.99 
 O(Fragment=2)         17.31     13.81     14.18 
 H(Fragment=2)         17.11     12.99     14.63 
 H(Fragment=2)         16.48     14.05     13.75 
 O(Fragment=2)         26.69     13.23     19.54 
 H(Fragment=2)         27.1      13.96     20.01 
 H(Fragment=2)         26.19     13.65     18.84 
 O(Fragment=2)         13.91     27.14     22.7 
 H(Fragment=2)         14.12     26.2      22.67 
 H(Fragment=2)         14.6      27.55     22.17 
 O(Fragment=2)         27.82     16.12     15.8 
 H(Fragment=2)         26.89     16.29     15.63 
 H(Fragment=2)         27.96     16.4      16.7 
 O(Fragment=2)         28.45     23.41     16.2 
 H(Fragment=2)         27.5      23.3      16.28 
 H(Fragment=2)         28.79     23.07     17.03 
 O(Fragment=2)         23.01     20.23     29.14 
 H(Fragment=2)         23.34     21.07     29.45 
 H(Fragment=2)         23.51     20.06     28.34 
 O(Fragment=2)         23.33     19.43     10.71 
 H(Fragment=2)         22.68     19.78     10.11 
 H(Fragment=2)         22.83     19.09     11.45 
 O(Fragment=2)         21.12     12.11     25.2 
 H(Fragment=2)         20.77     12.87     25.67 
 H(Fragment=2)         20.74     11.35     25.64 
 O(Fragment=2)         19.2      26.18     27.02 
 H(Fragment=2)         20.12     26.21     26.76 
 H(Fragment=2)         18.75     26.71     26.37 
 O(Fragment=2)         14.22     18.85     12.05 
 H(Fragment=2)         14.45     19.78     12.06 
 H(Fragment=2)         14.96     18.42     12.47 
 O(Fragment=2)         23.65     13.92     26.96 
 H(Fragment=2)         24.34     14.5      26.65 
 H(Fragment=2)         22.83     14.38     26.78 
 O(Fragment=2)         18.       15.29     28.47 
 H(Fragment=2)         18.38     15.55     29.31 
 H(Fragment=2)         17.7      16.12     28.08 
 
 NAtoms=    385 NQM=      385 NQMF=       0 NMMI=      0 NMMIF=      0
                NMic=       0 NMicF=      0.
                    Isotopes and Nuclear Properties:
 (Nuclear quadrupole moments (NQMom) in fm**2, nuclear magnetic moments (NMagM)
  in nuclear magnetons)

  Atom         1           2           3           4           5           6           7           8           9          10
 IAtWgt=          79          16           1           1          16           1           1          16           1           1
 AtmWgt=  78.9183361  15.9949146   1.0078250   1.0078250  15.9949146   1.0078250   1.0078250  15.9949146   1.0078250   1.0078250
 NucSpn=           3           0           1           1           0           1           1           0           1           1
 AtZEff=   0.0000000   0.0000000   0.0000000   0.0000000   0.0000000   0.0000000   0.0000000   0.0000000   0.0000000   0.0000000
 NQMom=   31.3000000   0.0000000   0.0000000   0.0000000   0.0000000   0.0000000   0.0000000   0.0000000   0.0000000   0.0000000
 NMagM=    2.1063990   0.0000000   2.7928460   2.7928460   0.0000000   2.7928460   2.7928460   0.0000000   2.7928460   2.7928460
 AtZNuc=  35.0000000   8.0000000   1.0000000   1.0000000   8.0000000   1.0000000   1.0000000   8.0000000   1.0000000   1.0000000

  Atom        11          12          13          14          15          16          17          18          19          20
 IAtWgt=          16           1           1          16           1           1          16           1           1          16
 AtmWgt=  15.9949146   1.0078250   1.0078250  15.9949146   1.0078250   1.0078250  15.9949146   1.0078250   1.0078250  15.9949146
 NucSpn=           0           1           1           0           1           1           0           1           1           0
 AtZEff=   0.0000000   0.0000000   0.0000000   0.0000000   0.0000000   0.0000000   0.0000000   0.0000000   0.0000000   0.0000000
 NQMom=    0.0000000   0.0000000   0.0000000   0.0000000   0.0000000   0.0000000   0.0000000   0.0000000   0.0000000   0.0000000
 NMagM=    0.0000000   2.7928460   2.7928460   0.0000000   2.7928460   2.7928460   0.0000000   2.7928460   2.7928460   0.0000000
 AtZNuc=   8.0000000   1.0000000   1.0000000   8.0000000   1.0000000   1.0000000   8.0000000   1.0000000   1.0000000   8.0000000

  Atom        21          22          23          24          25          26          27          28          29          30
 IAtWgt=           1           1          16           1           1          16           1           1          16           1
 AtmWgt=   1.0078250   1.0078250  15.9949146   1.0078250   1.0078250  15.9949146   1.0078250   1.0078250  15.9949146   1.0078250
 NucSpn=           1           1           0           1           1           0           1           1           0           1
 AtZEff=   0.0000000   0.0000000   0.0000000   0.0000000   0.0000000   0.0000000   0.0000000   0.0000000   0.0000000   0.0000000
 NQMom=    0.0000000   0.0000000   0.0000000   0.0000000   0.0000000   0.0000000   0.0000000   0.0000000   0.0000000   0.0000000
 NMagM=    2.7928460   2.7928460   0.0000000   2.7928460   2.7928460   0.0000000   2.7928460   2.7928460   0.0000000   2.7928460
 AtZNuc=   1.0000000   1.0000000   8.0000000   1.0000000   1.0000000   8.0000000   1.0000000   1.0000000   8.0000000   1.0000000

  Atom        31          32          33          34          35          36          37          38          39          40
 IAtWgt=           1          16           1           1          16           1           1          16           1           1
 AtmWgt=   1.0078250  15.9949146   1.0078250   1.0078250  15.9949146   1.0078250   1.0078250  15.9949146   1.0078250   1.0078250
 NucSpn=           1           0           1           1           0           1           1           0           1           1
 AtZEff=   0.0000000   0.0000000   0.0000000   0.0000000   0.0000000   0.0000000   0.0000000   0.0000000   0.0000000   0.0000000
 NQMom=    0.0000000   0.0000000   0.0000000   0.0000000   0.0000000   0.0000000   0.0000000   0.0000000   0.0000000   0.0000000
 NMagM=    2.7928460   0.0000000   2.7928460   2.7928460   0.0000000   2.7928460   2.7928460   0.0000000   2.7928460   2.7928460
 AtZNuc=   1.0000000   8.0000000   1.0000000   1.0000000   8.0000000   1.0000000   1.0000000   8.0000000   1.0000000   1.0000000

  Atom        41          42          43          44          45          46          47          48          49          50
 IAtWgt=          16           1           1          16           1           1          16           1           1          16
 AtmWgt=  15.9949146   1.0078250   1.0078250  15.9949146   1.0078250   1.0078250  15.9949146   1.0078250   1.0078250  15.9949146
 NucSpn=           0           1           1           0           1           1           0           1           1           0
 AtZEff=   0.0000000   0.0000000   0.0000000   0.0000000   0.0000000   0.0000000   0.0000000   0.0000000   0.0000000   0.0000000
 NQMom=    0.0000000   0.0000000   0.0000000   0.0000000   0.0000000   0.0000000   0.0000000   0.0000000   0.0000000   0.0000000
 NMagM=    0.0000000   2.7928460   2.7928460   0.0000000   2.7928460   2.7928460   0.0000000   2.7928460   2.7928460   0.0000000
 AtZNuc=   8.0000000   1.0000000   1.0000000   8.0000000   1.0000000   1.0000000   8.0000000   1.0000000   1.0000000   8.0000000

  Atom        51          52          53          54          55          56          57          58          59          60
 IAtWgt=           1           1          16           1           1          16           1           1          16           1
 AtmWgt=   1.0078250   1.0078250  15.9949146   1.0078250   1.0078250  15.9949146   1.0078250   1.0078250  15.9949146   1.0078250
 NucSpn=           1           1           0           1           1           0           1           1           0           1
 AtZEff=   0.0000000   0.0000000   0.0000000   0.0000000   0.0000000   0.0000000   0.0000000   0.0000000   0.0000000   0.0000000
 NQMom=    0.0000000   0.0000000   0.0000000   0.0000000   0.0000000   0.0000000   0.0000000   0.0000000   0.0000000   0.0000000
 NMagM=    2.7928460   2.7928460   0.0000000   2.7928460   2.7928460   0.0000000   2.7928460   2.7928460   0.0000000   2.7928460
 AtZNuc=   1.0000000   1.0000000   8.0000000   1.0000000   1.0000000   8.0000000   1.0000000   1.0000000   8.0000000   1.0000000

  Atom        61          62          63          64          65          66          67          68          69          70
 IAtWgt=           1          16           1           1          16           1           1          16           1           1
 AtmWgt=   1.0078250  15.9949146   1.0078250   1.0078250  15.9949146   1.0078250   1.0078250  15.9949146   1.0078250   1.0078250
 NucSpn=           1           0           1           1           0           1           1           0           1           1
 AtZEff=   0.0000000   0.0000000   0.0000000   0.0000000   0.0000000   0.0000000   0.0000000   0.0000000   0.0000000   0.0000000
 NQMom=    0.0000000   0.0000000   0.0000000   0.0000000   0.0000000   0.0000000   0.0000000   0.0000000   0.0000000   0.0000000
 NMagM=    2.7928460   0.0000000   2.7928460   2.7928460   0.0000000   2.7928460   2.7928460   0.0000000   2.7928460   2.7928460
 AtZNuc=   1.0000000   8.0000000   1.0000000   1.0000000   8.0000000   1.0000000   1.0000000   8.0000000   1.0000000   1.0000000

  Atom        71          72          73          74          75          76          77          78          79          80
 IAtWgt=          16           1           1          16           1           1          16           1           1          16
 AtmWgt=  15.9949146   1.0078250   1.0078250  15.9949146   1.0078250   1.0078250  15.9949146   1.0078250   1.0078250  15.9949146
 NucSpn=           0           1           1           0           1           1           0           1           1           0
 AtZEff=   0.0000000   0.0000000   0.0000000   0.0000000   0.0000000   0.0000000   0.0000000   0.0000000   0.0000000   0.0000000
 NQMom=    0.0000000   0.0000000   0.0000000   0.0000000   0.0000000   0.0000000   0.0000000   0.0000000   0.0000000   0.0000000
 NMagM=    0.0000000   2.7928460   2.7928460   0.0000000   2.7928460   2.7928460   0.0000000   2.7928460   2.7928460   0.0000000
 AtZNuc=   8.0000000   1.0000000   1.0000000   8.0000000   1.0000000   1.0000000   8.0000000   1.0000000   1.0000000   8.0000000

  Atom        81          82          83          84          85          86          87          88          89          90
 IAtWgt=           1           1          16           1           1          16           1           1          16           1
 AtmWgt=   1.0078250   1.0078250  15.9949146   1.0078250   1.0078250  15.9949146   1.0078250   1.0078250  15.9949146   1.0078250
 NucSpn=           1           1           0           1           1           0           1           1           0           1
 AtZEff=   0.0000000   0.0000000   0.0000000   0.0000000   0.0000000   0.0000000   0.0000000   0.0000000   0.0000000   0.0000000
 NQMom=    0.0000000   0.0000000   0.0000000   0.0000000   0.0000000   0.0000000   0.0000000   0.0000000   0.0000000   0.0000000
 NMagM=    2.7928460   2.7928460   0.0000000   2.7928460   2.7928460   0.0000000   2.7928460   2.7928460   0.0000000   2.7928460
 AtZNuc=   1.0000000   1.0000000   8.0000000   1.0000000   1.0000000   8.0000000   1.0000000   1.0000000   8.0000000   1.0000000

  Atom        91          92          93          94          95          96          97          98          99         100
 IAtWgt=           1          16           1           1          16           1           1          16           1           1
 AtmWgt=   1.0078250  15.9949146   1.0078250   1.0078250  15.9949146   1.0078250   1.0078250  15.9949146   1.0078250   1.0078250
 NucSpn=           1           0           1           1           0           1           1           0           1           1
 AtZEff=   0.0000000   0.0000000   0.0000000   0.0000000   0.0000000   0.0000000   0.0000000   0.0000000   0.0000000   0.0000000
 NQMom=    0.0000000   0.0000000   0.0000000   0.0000000   0.0000000   0.0000000   0.0000000   0.0000000   0.0000000   0.0000000
 NMagM=    2.7928460   0.0000000   2.7928460   2.7928460   0.0000000   2.7928460   2.7928460   0.0000000   2.7928460   2.7928460
 AtZNuc=   1.0000000   8.0000000   1.0000000   1.0000000   8.0000000   1.0000000   1.0000000   8.0000000   1.0000000   1.0000000

  Atom       101         102         103         104         105         106         107         108         109         110
 IAtWgt=          16           1           1          16           1           1          16           1           1          16
 AtmWgt=  15.9949146   1.0078250   1.0078250  15.9949146   1.0078250   1.0078250  15.9949146   1.0078250   1.0078250  15.9949146
 NucSpn=           0           1           1           0           1           1           0           1           1           0
 AtZEff=   0.0000000   0.0000000   0.0000000   0.0000000   0.0000000   0.0000000   0.0000000   0.0000000   0.0000000   0.0000000
 NQMom=    0.0000000   0.0000000   0.0000000   0.0000000   0.0000000   0.0000000   0.0000000   0.0000000   0.0000000   0.0000000
 NMagM=    0.0000000   2.7928460   2.7928460   0.0000000   2.7928460   2.7928460   0.0000000   2.7928460   2.7928460   0.0000000
 AtZNuc=   8.0000000   1.0000000   1.0000000   8.0000000   1.0000000   1.0000000   8.0000000   1.0000000   1.0000000   8.0000000

  Atom       111         112         113         114         115         116         117         118         119         120
 IAtWgt=           1           1          16           1           1          16           1           1          16           1
 AtmWgt=   1.0078250   1.0078250  15.9949146   1.0078250   1.0078250  15.9949146   1.0078250   1.0078250  15.9949146   1.0078250
 NucSpn=           1           1           0           1           1           0           1           1           0           1
 AtZEff=   0.0000000   0.0000000   0.0000000   0.0000000   0.0000000   0.0000000   0.0000000   0.0000000   0.0000000   0.0000000
 NQMom=    0.0000000   0.0000000   0.0000000   0.0000000   0.0000000   0.0000000   0.0000000   0.0000000   0.0000000   0.0000000
 NMagM=    2.7928460   2.7928460   0.0000000   2.7928460   2.7928460   0.0000000   2.7928460   2.7928460   0.0000000   2.7928460
 AtZNuc=   1.0000000   1.0000000   8.0000000   1.0000000   1.0000000   8.0000000   1.0000000   1.0000000   8.0000000   1.0000000

  Atom       121         122         123         124         125         126         127         128         129         130
 IAtWgt=           1          16           1           1          16           1           1          16           1           1
 AtmWgt=   1.0078250  15.9949146   1.0078250   1.0078250  15.9949146   1.0078250   1.0078250  15.9949146   1.0078250   1.0078250
 NucSpn=           1           0           1           1           0           1           1           0           1           1
 AtZEff=   0.0000000   0.0000000   0.0000000   0.0000000   0.0000000   0.0000000   0.0000000   0.0000000   0.0000000   0.0000000
 NQMom=    0.0000000   0.0000000   0.0000000   0.0000000   0.0000000   0.0000000   0.0000000   0.0000000   0.0000000   0.0000000
 NMagM=    2.7928460   0.0000000   2.7928460   2.7928460   0.0000000   2.7928460   2.7928460   0.0000000   2.7928460   2.7928460
 AtZNuc=   1.0000000   8.0000000   1.0000000   1.0000000   8.0000000   1.0000000   1.0000000   8.0000000   1.0000000   1.0000000

  Atom       131         132         133         134         135         136         137         138         139         140
 IAtWgt=          16           1           1          16           1           1          16           1           1          16
 AtmWgt=  15.9949146   1.0078250   1.0078250  15.9949146   1.0078250   1.0078250  15.9949146   1.0078250   1.0078250  15.9949146
 NucSpn=           0           1           1           0           1           1           0           1           1           0
 AtZEff=   0.0000000   0.0000000   0.0000000   0.0000000   0.0000000   0.0000000   0.0000000   0.0000000   0.0000000   0.0000000
 NQMom=    0.0000000   0.0000000   0.0000000   0.0000000   0.0000000   0.0000000   0.0000000   0.0000000   0.0000000   0.0000000
 NMagM=    0.0000000   2.7928460   2.7928460   0.0000000   2.7928460   2.7928460   0.0000000   2.7928460   2.7928460   0.0000000
 AtZNuc=   8.0000000   1.0000000   1.0000000   8.0000000   1.0000000   1.0000000   8.0000000   1.0000000   1.0000000   8.0000000

  Atom       141         142         143         144         145         146         147         148         149         150
 IAtWgt=           1           1          16           1           1          16           1           1          16           1
 AtmWgt=   1.0078250   1.0078250  15.9949146   1.0078250   1.0078250  15.9949146   1.0078250   1.0078250  15.9949146   1.0078250
 NucSpn=           1           1           0           1           1           0           1           1           0           1
 AtZEff=   0.0000000   0.0000000   0.0000000   0.0000000   0.0000000   0.0000000   0.0000000   0.0000000   0.0000000   0.0000000
 NQMom=    0.0000000   0.0000000   0.0000000   0.0000000   0.0000000   0.0000000   0.0000000   0.0000000   0.0000000   0.0000000
 NMagM=    2.7928460   2.7928460   0.0000000   2.7928460   2.7928460   0.0000000   2.7928460   2.7928460   0.0000000   2.7928460
 AtZNuc=   1.0000000   1.0000000   8.0000000   1.0000000   1.0000000   8.0000000   1.0000000   1.0000000   8.0000000   1.0000000

  Atom       151         152         153         154         155         156         157         158         159         160
 IAtWgt=           1          16           1           1          16           1           1          16           1           1
 AtmWgt=   1.0078250  15.9949146   1.0078250   1.0078250  15.9949146   1.0078250   1.0078250  15.9949146   1.0078250   1.0078250
 NucSpn=           1           0           1           1           0           1           1           0           1           1
 AtZEff=   0.0000000   0.0000000   0.0000000   0.0000000   0.0000000   0.0000000   0.0000000   0.0000000   0.0000000   0.0000000
 NQMom=    0.0000000   0.0000000   0.0000000   0.0000000   0.0000000   0.0000000   0.0000000   0.0000000   0.0000000   0.0000000
 NMagM=    2.7928460   0.0000000   2.7928460   2.7928460   0.0000000   2.7928460   2.7928460   0.0000000   2.7928460   2.7928460
 AtZNuc=   1.0000000   8.0000000   1.0000000   1.0000000   8.0000000   1.0000000   1.0000000   8.0000000   1.0000000   1.0000000

  Atom       161         162         163         164         165         166         167         168         169         170
 IAtWgt=          16           1           1          16           1           1          16           1           1          16
 AtmWgt=  15.9949146   1.0078250   1.0078250  15.9949146   1.0078250   1.0078250  15.9949146   1.0078250   1.0078250  15.9949146
 NucSpn=           0           1           1           0           1           1           0           1           1           0
 AtZEff=   0.0000000   0.0000000   0.0000000   0.0000000   0.0000000   0.0000000   0.0000000   0.0000000   0.0000000   0.0000000
 NQMom=    0.0000000   0.0000000   0.0000000   0.0000000   0.0000000   0.0000000   0.0000000   0.0000000   0.0000000   0.0000000
 NMagM=    0.0000000   2.7928460   2.7928460   0.0000000   2.7928460   2.7928460   0.0000000   2.7928460   2.7928460   0.0000000
 AtZNuc=   8.0000000   1.0000000   1.0000000   8.0000000   1.0000000   1.0000000   8.0000000   1.0000000   1.0000000   8.0000000

  Atom       171         172         173         174         175         176         177         178         179         180
 IAtWgt=           1           1          16           1           1          16           1           1          16           1
 AtmWgt=   1.0078250   1.0078250  15.9949146   1.0078250   1.0078250  15.9949146   1.0078250   1.0078250  15.9949146   1.0078250
 NucSpn=           1           1           0           1           1           0           1           1           0           1
 AtZEff=   0.0000000   0.0000000   0.0000000   0.0000000   0.0000000   0.0000000   0.0000000   0.0000000   0.0000000   0.0000000
 NQMom=    0.0000000   0.0000000   0.0000000   0.0000000   0.0000000   0.0000000   0.0000000   0.0000000   0.0000000   0.0000000
 NMagM=    2.7928460   2.7928460   0.0000000   2.7928460   2.7928460   0.0000000   2.7928460   2.7928460   0.0000000   2.7928460
 AtZNuc=   1.0000000   1.0000000   8.0000000   1.0000000   1.0000000   8.0000000   1.0000000   1.0000000   8.0000000   1.0000000

  Atom       181         182         183         184         185         186         187         188         189         190
 IAtWgt=           1          16           1           1          16           1           1          16           1           1
 AtmWgt=   1.0078250  15.9949146   1.0078250   1.0078250  15.9949146   1.0078250   1.0078250  15.9949146   1.0078250   1.0078250
 NucSpn=           1           0           1           1           0           1           1           0           1           1
 AtZEff=   0.0000000   0.0000000   0.0000000   0.0000000   0.0000000   0.0000000   0.0000000   0.0000000   0.0000000   0.0000000
 NQMom=    0.0000000   0.0000000   0.0000000   0.0000000   0.0000000   0.0000000   0.0000000   0.0000000   0.0000000   0.0000000
 NMagM=    2.7928460   0.0000000   2.7928460   2.7928460   0.0000000   2.7928460   2.7928460   0.0000000   2.7928460   2.7928460
 AtZNuc=   1.0000000   8.0000000   1.0000000   1.0000000   8.0000000   1.0000000   1.0000000   8.0000000   1.0000000   1.0000000

  Atom       191         192         193         194         195         196         197         198         199         200
 IAtWgt=          16           1           1          16           1           1          16           1           1          16
 AtmWgt=  15.9949146   1.0078250   1.0078250  15.9949146   1.0078250   1.0078250  15.9949146   1.0078250   1.0078250  15.9949146
 NucSpn=           0           1           1           0           1           1           0           1           1           0
 AtZEff=   0.0000000   0.0000000   0.0000000   0.0000000   0.0000000   0.0000000   0.0000000   0.0000000   0.0000000   0.0000000
 NQMom=    0.0000000   0.0000000   0.0000000   0.0000000   0.0000000   0.0000000   0.0000000   0.0000000   0.0000000   0.0000000
 NMagM=    0.0000000   2.7928460   2.7928460   0.0000000   2.7928460   2.7928460   0.0000000   2.7928460   2.7928460   0.0000000
 AtZNuc=   8.0000000   1.0000000   1.0000000   8.0000000   1.0000000   1.0000000   8.0000000   1.0000000   1.0000000   8.0000000

  Atom       201         202         203         204         205         206         207         208         209         210
 IAtWgt=           1           1          16           1           1          16           1           1          16           1
 AtmWgt=   1.0078250   1.0078250  15.9949146   1.0078250   1.0078250  15.9949146   1.0078250   1.0078250  15.9949146   1.0078250
 NucSpn=           1           1           0           1           1           0           1           1           0           1
 AtZEff=   0.0000000   0.0000000   0.0000000   0.0000000   0.0000000   0.0000000   0.0000000   0.0000000   0.0000000   0.0000000
 NQMom=    0.0000000   0.0000000   0.0000000   0.0000000   0.0000000   0.0000000   0.0000000   0.0000000   0.0000000   0.0000000
 NMagM=    2.7928460   2.7928460   0.0000000   2.7928460   2.7928460   0.0000000   2.7928460   2.7928460   0.0000000   2.7928460
 AtZNuc=   1.0000000   1.0000000   8.0000000   1.0000000   1.0000000   8.0000000   1.0000000   1.0000000   8.0000000   1.0000000

  Atom       211         212         213         214         215         216         217         218         219         220
 IAtWgt=           1          16           1           1          16           1           1          16           1           1
 AtmWgt=   1.0078250  15.9949146   1.0078250   1.0078250  15.9949146   1.0078250   1.0078250  15.9949146   1.0078250   1.0078250
 NucSpn=           1           0           1           1           0           1           1           0           1           1
 AtZEff=   0.0000000   0.0000000   0.0000000   0.0000000   0.0000000   0.0000000   0.0000000   0.0000000   0.0000000   0.0000000
 NQMom=    0.0000000   0.0000000   0.0000000   0.0000000   0.0000000   0.0000000   0.0000000   0.0000000   0.0000000   0.0000000
 NMagM=    2.7928460   0.0000000   2.7928460   2.7928460   0.0000000   2.7928460   2.7928460   0.0000000   2.7928460   2.7928460
 AtZNuc=   1.0000000   8.0000000   1.0000000   1.0000000   8.0000000   1.0000000   1.0000000   8.0000000   1.0000000   1.0000000

  Atom       221         222         223         224         225         226         227         228         229         230
 IAtWgt=          16           1           1          16           1           1          16           1           1          16
 AtmWgt=  15.9949146   1.0078250   1.0078250  15.9949146   1.0078250   1.0078250  15.9949146   1.0078250   1.0078250  15.9949146
 NucSpn=           0           1           1           0           1           1           0           1           1           0
 AtZEff=   0.0000000   0.0000000   0.0000000   0.0000000   0.0000000   0.0000000   0.0000000   0.0000000   0.0000000   0.0000000
 NQMom=    0.0000000   0.0000000   0.0000000   0.0000000   0.0000000   0.0000000   0.0000000   0.0000000   0.0000000   0.0000000
 NMagM=    0.0000000   2.7928460   2.7928460   0.0000000   2.7928460   2.7928460   0.0000000   2.7928460   2.7928460   0.0000000
 AtZNuc=   8.0000000   1.0000000   1.0000000   8.0000000   1.0000000   1.0000000   8.0000000   1.0000000   1.0000000   8.0000000

  Atom       231         232         233         234         235         236         237         238         239         240
 IAtWgt=           1           1          16           1           1          16           1           1          16           1
 AtmWgt=   1.0078250   1.0078250  15.9949146   1.0078250   1.0078250  15.9949146   1.0078250   1.0078250  15.9949146   1.0078250
 NucSpn=           1           1           0           1           1           0           1           1           0           1
 AtZEff=   0.0000000   0.0000000   0.0000000   0.0000000   0.0000000   0.0000000   0.0000000   0.0000000   0.0000000   0.0000000
 NQMom=    0.0000000   0.0000000   0.0000000   0.0000000   0.0000000   0.0000000   0.0000000   0.0000000   0.0000000   0.0000000
 NMagM=    2.7928460   2.7928460   0.0000000   2.7928460   2.7928460   0.0000000   2.7928460   2.7928460   0.0000000   2.7928460
 AtZNuc=   1.0000000   1.0000000   8.0000000   1.0000000   1.0000000   8.0000000   1.0000000   1.0000000   8.0000000   1.0000000

  Atom       241         242         243         244         245         246         247         248         249         250
 IAtWgt=           1          16           1           1          16           1           1          16           1           1
 AtmWgt=   1.0078250  15.9949146   1.0078250   1.0078250  15.9949146   1.0078250   1.0078250  15.9949146   1.0078250   1.0078250
 NucSpn=           1           0           1           1           0           1           1           0           1           1
 AtZEff=   0.0000000   0.0000000   0.0000000   0.0000000   0.0000000   0.0000000   0.0000000   0.0000000   0.0000000   0.0000000
 NQMom=    0.0000000   0.0000000   0.0000000   0.0000000   0.0000000   0.0000000   0.0000000   0.0000000   0.0000000   0.0000000
 NMagM=    2.7928460   0.0000000   2.7928460   2.7928460   0.0000000   2.7928460   2.7928460   0.0000000   2.7928460   2.7928460
 AtZNuc=   1.0000000   8.0000000   1.0000000   1.0000000   8.0000000   1.0000000   1.0000000   8.0000000   1.0000000   1.0000000

  Atom       251         252         253         254         255         256         257         258         259         260
 IAtWgt=          16           1           1          16           1           1          16           1           1          16
 AtmWgt=  15.9949146   1.0078250   1.0078250  15.9949146   1.0078250   1.0078250  15.9949146   1.0078250   1.0078250  15.9949146
 NucSpn=           0           1           1           0           1           1           0           1           1           0
 AtZEff=   0.0000000   0.0000000   0.0000000   0.0000000   0.0000000   0.0000000   0.0000000   0.0000000   0.0000000   0.0000000
 NQMom=    0.0000000   0.0000000   0.0000000   0.0000000   0.0000000   0.0000000   0.0000000   0.0000000   0.0000000   0.0000000
 NMagM=    0.0000000   2.7928460   2.7928460   0.0000000   2.7928460   2.7928460   0.0000000   2.7928460   2.7928460   0.0000000
 AtZNuc=   8.0000000   1.0000000   1.0000000   8.0000000   1.0000000   1.0000000   8.0000000   1.0000000   1.0000000   8.0000000

  Atom       261         262         263         264         265         266         267         268         269         270
 IAtWgt=           1           1          16           1           1          16           1           1          16           1
 AtmWgt=   1.0078250   1.0078250  15.9949146   1.0078250   1.0078250  15.9949146   1.0078250   1.0078250  15.9949146   1.0078250
 NucSpn=           1           1           0           1           1           0           1           1           0           1
 AtZEff=   0.0000000   0.0000000   0.0000000   0.0000000   0.0000000   0.0000000   0.0000000   0.0000000   0.0000000   0.0000000
 NQMom=    0.0000000   0.0000000   0.0000000   0.0000000   0.0000000   0.0000000   0.0000000   0.0000000   0.0000000   0.0000000
 NMagM=    2.7928460   2.7928460   0.0000000   2.7928460   2.7928460   0.0000000   2.7928460   2.7928460   0.0000000   2.7928460
 AtZNuc=   1.0000000   1.0000000   8.0000000   1.0000000   1.0000000   8.0000000   1.0000000   1.0000000   8.0000000   1.0000000

  Atom       271         272         273         274         275         276         277         278         279         280
 IAtWgt=           1          16           1           1          16           1           1          16           1           1
 AtmWgt=   1.0078250  15.9949146   1.0078250   1.0078250  15.9949146   1.0078250   1.0078250  15.9949146   1.0078250   1.0078250
 NucSpn=           1           0           1           1           0           1           1           0           1           1
 AtZEff=   0.0000000   0.0000000   0.0000000   0.0000000   0.0000000   0.0000000   0.0000000   0.0000000   0.0000000   0.0000000
 NQMom=    0.0000000   0.0000000   0.0000000   0.0000000   0.0000000   0.0000000   0.0000000   0.0000000   0.0000000   0.0000000
 NMagM=    2.7928460   0.0000000   2.7928460   2.7928460   0.0000000   2.7928460   2.7928460   0.0000000   2.7928460   2.7928460
 AtZNuc=   1.0000000   8.0000000   1.0000000   1.0000000   8.0000000   1.0000000   1.0000000   8.0000000   1.0000000   1.0000000

  Atom       281         282         283         284         285         286         287         288         289         290
 IAtWgt=          16           1           1          16           1           1          16           1           1          16
 AtmWgt=  15.9949146   1.0078250   1.0078250  15.9949146   1.0078250   1.0078250  15.9949146   1.0078250   1.0078250  15.9949146
 NucSpn=           0           1           1           0           1           1           0           1           1           0
 AtZEff=   0.0000000   0.0000000   0.0000000   0.0000000   0.0000000   0.0000000   0.0000000   0.0000000   0.0000000   0.0000000
 NQMom=    0.0000000   0.0000000   0.0000000   0.0000000   0.0000000   0.0000000   0.0000000   0.0000000   0.0000000   0.0000000
 NMagM=    0.0000000   2.7928460   2.7928460   0.0000000   2.7928460   2.7928460   0.0000000   2.7928460   2.7928460   0.0000000
 AtZNuc=   8.0000000   1.0000000   1.0000000   8.0000000   1.0000000   1.0000000   8.0000000   1.0000000   1.0000000   8.0000000

  Atom       291         292         293         294         295         296         297         298         299         300
 IAtWgt=           1           1          16           1           1          16           1           1          16           1
 AtmWgt=   1.0078250   1.0078250  15.9949146   1.0078250   1.0078250  15.9949146   1.0078250   1.0078250  15.9949146   1.0078250
 NucSpn=           1           1           0           1           1           0           1           1           0           1
 AtZEff=   0.0000000   0.0000000   0.0000000   0.0000000   0.0000000   0.0000000   0.0000000   0.0000000   0.0000000   0.0000000
 NQMom=    0.0000000   0.0000000   0.0000000   0.0000000   0.0000000   0.0000000   0.0000000   0.0000000   0.0000000   0.0000000
 NMagM=    2.7928460   2.7928460   0.0000000   2.7928460   2.7928460   0.0000000   2.7928460   2.7928460   0.0000000   2.7928460
 AtZNuc=   1.0000000   1.0000000   8.0000000   1.0000000   1.0000000   8.0000000   1.0000000   1.0000000   8.0000000   1.0000000

  Atom       301         302         303         304         305         306         307         308         309         310
 IAtWgt=           1          16           1           1          16           1           1          16           1           1
 AtmWgt=   1.0078250  15.9949146   1.0078250   1.0078250  15.9949146   1.0078250   1.0078250  15.9949146   1.0078250   1.0078250
 NucSpn=           1           0           1           1           0           1           1           0           1           1
 AtZEff=   0.0000000   0.0000000   0.0000000   0.0000000   0.0000000   0.0000000   0.0000000   0.0000000   0.0000000   0.0000000
 NQMom=    0.0000000   0.0000000   0.0000000   0.0000000   0.0000000   0.0000000   0.0000000   0.0000000   0.0000000   0.0000000
 NMagM=    2.7928460   0.0000000   2.7928460   2.7928460   0.0000000   2.7928460   2.7928460   0.0000000   2.7928460   2.7928460
 AtZNuc=   1.0000000   8.0000000   1.0000000   1.0000000   8.0000000   1.0000000   1.0000000   8.0000000   1.0000000   1.0000000

  Atom       311         312         313         314         315         316         317         318         319         320
 IAtWgt=          16           1           1          16           1           1          16           1           1          16
 AtmWgt=  15.9949146   1.0078250   1.0078250  15.9949146   1.0078250   1.0078250  15.9949146   1.0078250   1.0078250  15.9949146
 NucSpn=           0           1           1           0           1           1           0           1           1           0
 AtZEff=   0.0000000   0.0000000   0.0000000   0.0000000   0.0000000   0.0000000   0.0000000   0.0000000   0.0000000   0.0000000
 NQMom=    0.0000000   0.0000000   0.0000000   0.0000000   0.0000000   0.0000000   0.0000000   0.0000000   0.0000000   0.0000000
 NMagM=    0.0000000   2.7928460   2.7928460   0.0000000   2.7928460   2.7928460   0.0000000   2.7928460   2.7928460   0.0000000
 AtZNuc=   8.0000000   1.0000000   1.0000000   8.0000000   1.0000000   1.0000000   8.0000000   1.0000000   1.0000000   8.0000000

  Atom       321         322         323         324         325         326         327         328         329         330
 IAtWgt=           1           1          16           1           1          16           1           1          16           1
 AtmWgt=   1.0078250   1.0078250  15.9949146   1.0078250   1.0078250  15.9949146   1.0078250   1.0078250  15.9949146   1.0078250
 NucSpn=           1           1           0           1           1           0           1           1           0           1
 AtZEff=   0.0000000   0.0000000   0.0000000   0.0000000   0.0000000   0.0000000   0.0000000   0.0000000   0.0000000   0.0000000
 NQMom=    0.0000000   0.0000000   0.0000000   0.0000000   0.0000000   0.0000000   0.0000000   0.0000000   0.0000000   0.0000000
 NMagM=    2.7928460   2.7928460   0.0000000   2.7928460   2.7928460   0.0000000   2.7928460   2.7928460   0.0000000   2.7928460
 AtZNuc=   1.0000000   1.0000000   8.0000000   1.0000000   1.0000000   8.0000000   1.0000000   1.0000000   8.0000000   1.0000000

  Atom       331         332         333         334         335         336         337         338         339         340
 IAtWgt=           1          16           1           1          16           1           1          16           1           1
 AtmWgt=   1.0078250  15.9949146   1.0078250   1.0078250  15.9949146   1.0078250   1.0078250  15.9949146   1.0078250   1.0078250
 NucSpn=           1           0           1           1           0           1           1           0           1           1
 AtZEff=   0.0000000   0.0000000   0.0000000   0.0000000   0.0000000   0.0000000   0.0000000   0.0000000   0.0000000   0.0000000
 NQMom=    0.0000000   0.0000000   0.0000000   0.0000000   0.0000000   0.0000000   0.0000000   0.0000000   0.0000000   0.0000000
 NMagM=    2.7928460   0.0000000   2.7928460   2.7928460   0.0000000   2.7928460   2.7928460   0.0000000   2.7928460   2.7928460
 AtZNuc=   1.0000000   8.0000000   1.0000000   1.0000000   8.0000000   1.0000000   1.0000000   8.0000000   1.0000000   1.0000000

  Atom       341         342         343         344         345         346         347         348         349         350
 IAtWgt=          16           1           1          16           1           1          16           1           1          16
 AtmWgt=  15.9949146   1.0078250   1.0078250  15.9949146   1.0078250   1.0078250  15.9949146   1.0078250   1.0078250  15.9949146
 NucSpn=           0           1           1           0           1           1           0           1           1           0
 AtZEff=   0.0000000   0.0000000   0.0000000   0.0000000   0.0000000   0.0000000   0.0000000   0.0000000   0.0000000   0.0000000
 NQMom=    0.0000000   0.0000000   0.0000000   0.0000000   0.0000000   0.0000000   0.0000000   0.0000000   0.0000000   0.0000000
 NMagM=    0.0000000   2.7928460   2.7928460   0.0000000   2.7928460   2.7928460   0.0000000   2.7928460   2.7928460   0.0000000
 AtZNuc=   8.0000000   1.0000000   1.0000000   8.0000000   1.0000000   1.0000000   8.0000000   1.0000000   1.0000000   8.0000000

  Atom       351         352         353         354         355         356         357         358         359         360
 IAtWgt=           1           1          16           1           1          16           1           1          16           1
 AtmWgt=   1.0078250   1.0078250  15.9949146   1.0078250   1.0078250  15.9949146   1.0078250   1.0078250  15.9949146   1.0078250
 NucSpn=           1           1           0           1           1           0           1           1           0           1
 AtZEff=   0.0000000   0.0000000   0.0000000   0.0000000   0.0000000   0.0000000   0.0000000   0.0000000   0.0000000   0.0000000
 NQMom=    0.0000000   0.0000000   0.0000000   0.0000000   0.0000000   0.0000000   0.0000000   0.0000000   0.0000000   0.0000000
 NMagM=    2.7928460   2.7928460   0.0000000   2.7928460   2.7928460   0.0000000   2.7928460   2.7928460   0.0000000   2.7928460
 AtZNuc=   1.0000000   1.0000000   8.0000000   1.0000000   1.0000000   8.0000000   1.0000000   1.0000000   8.0000000   1.0000000

  Atom       361         362         363         364         365         366         367         368         369         370
 IAtWgt=           1          16           1           1          16           1           1          16           1           1
 AtmWgt=   1.0078250  15.9949146   1.0078250   1.0078250  15.9949146   1.0078250   1.0078250  15.9949146   1.0078250   1.0078250
 NucSpn=           1           0           1           1           0           1           1           0           1           1
 AtZEff=   0.0000000   0.0000000   0.0000000   0.0000000   0.0000000   0.0000000   0.0000000   0.0000000   0.0000000   0.0000000
 NQMom=    0.0000000   0.0000000   0.0000000   0.0000000   0.0000000   0.0000000   0.0000000   0.0000000   0.0000000   0.0000000
 NMagM=    2.7928460   0.0000000   2.7928460   2.7928460   0.0000000   2.7928460   2.7928460   0.0000000   2.7928460   2.7928460
 AtZNuc=   1.0000000   8.0000000   1.0000000   1.0000000   8.0000000   1.0000000   1.0000000   8.0000000   1.0000000   1.0000000

  Atom       371         372         373         374         375         376         377         378         379         380
 IAtWgt=          16           1           1          16           1           1          16           1           1          16
 AtmWgt=  15.9949146   1.0078250   1.0078250  15.9949146   1.0078250   1.0078250  15.9949146   1.0078250   1.0078250  15.9949146
 NucSpn=           0           1           1           0           1           1           0           1           1           0
 AtZEff=   0.0000000   0.0000000   0.0000000   0.0000000   0.0000000   0.0000000   0.0000000   0.0000000   0.0000000   0.0000000
 NQMom=    0.0000000   0.0000000   0.0000000   0.0000000   0.0000000   0.0000000   0.0000000   0.0000000   0.0000000   0.0000000
 NMagM=    0.0000000   2.7928460   2.7928460   0.0000000   2.7928460   2.7928460   0.0000000   2.7928460   2.7928460   0.0000000
 AtZNuc=   8.0000000   1.0000000   1.0000000   8.0000000   1.0000000   1.0000000   8.0000000   1.0000000   1.0000000   8.0000000

  Atom       381         382         383         384         385
 IAtWgt=           1           1          16           1           1
 AtmWgt=   1.0078250   1.0078250  15.9949146   1.0078250   1.0078250
 NucSpn=           1           1           0           1           1
 AtZEff=   0.0000000   0.0000000   0.0000000   0.0000000   0.0000000
 NQMom=    0.0000000   0.0000000   0.0000000   0.0000000   0.0000000
 NMagM=    2.7928460   2.7928460   0.0000000   2.7928460   2.7928460
 AtZNuc=   1.0000000   1.0000000   8.0000000   1.0000000   1.0000000
 Leave Link  101 at Tue May  8 04:33:29 2018, MaxMem= 14763950080 cpu:        33.3
 (Enter /cm/shared/gaussian/g09.e01/intel64-sandybridge/g09/l103.exe)

 GradGradGradGradGradGradGradGradGradGradGradGradGradGradGradGradGradGrad
 Berny optimization.
 Initialization pass.
 Trust Radius=3.00D-01 FncErr=1.00D-07 GrdErr=1.00D-07
 Number of steps in this run=      2 maximum allowed number of steps=      2.
 GradGradGradGradGradGradGradGradGradGradGradGradGradGradGradGradGradGrad

 Leave Link  103 at Tue May  8 04:33:29 2018, MaxMem= 14763950080 cpu:         3.7
 (Enter /cm/shared/gaussian/g09.e01/intel64-sandybridge/g09/l202.exe)
 Symmetry turned off by external request.
 Stoichiometry    BrH256O128(1-)
 Framework group  C1[X(BrH256O128)]
 Deg. of freedom  1149
 Full point group                 C1      NOp   1
                          Input orientation:                          
 ---------------------------------------------------------------------
 Center     Atomic      Atomic             Coordinates (Angstroms)
 Number     Number       Type             X           Y           Z
 ---------------------------------------------------------------------
      1         35           0       20.000000   20.000000   20.000000
      2          8           0       22.590000   21.700000   20.880000
      3          1           0       22.830000   21.170000   21.640000
      4          1           0       21.900000   21.190000   20.440000
      5          8           0       21.140000   17.020000   21.200000
      6          1           0       21.350000   17.300000   22.090000
      7          1           0       20.930000   17.830000   20.730000
      8          8           0       19.900000   22.620000   17.700000
      9          1           0       19.760000   22.010000   18.420000
     10          1           0       19.310000   22.320000   17.010000
     11          8           0       17.250000   21.350000   18.410000
     12          1           0       17.960000   21.260000   19.050000
     13          1           0       16.470000   21.540000   18.930000
     14          8           0       19.410000   22.130000   23.020000
     15          1           0       19.680000   21.280000   22.680000
     16          1           0       20.060000   22.350000   23.680000
     17          8           0       18.180000   16.910000   21.790000
     18          1           0       18.900000   17.250000   21.260000
     19          1           0       18.550000   16.830000   22.670000
     20          8           0       23.460000   18.890000   18.050000
     21          1           0       22.850000   19.550000   18.380000
     22          1           0       23.450000   19.020000   17.100000
     23          8           0       16.270000   19.200000   22.040000
     24          1           0       17.050000   19.090000   21.490000
     25          1           0       16.460000   18.680000   22.830000
     26          8           0       20.310000   19.170000   15.790000
     27          1           0       20.840000   18.390000   15.930000
     28          1           0       20.490000   19.720000   16.550000
     29          8           0       16.590000   22.080000   21.350000
     30          1           0       17.520000   22.180000   21.530000
     31          1           0       16.320000   21.320000   21.870000
     32          8           0       18.780000   24.340000   19.500000
     33          1           0       19.450000   24.970000   19.270000
     34          1           0       18.980000   23.570000   18.970000
     35          8           0       17.910000   16.260000   18.520000
     36          1           0       17.710000   17.190000   18.620000
     37          1           0       18.860000   16.210000   18.670000
     38          8           0       18.270000   20.900000   15.860000
     39          1           0       17.900000   20.970000   16.740000
     40          1           0       18.390000   19.960000   15.730000
     41          8           0       20.610000   15.590000   18.810000
     42          1           0       21.000000   16.120000   19.510000
     43          1           0       20.760000   14.690000   19.080000
     44          8           0       21.800000   24.010000   22.300000
     45          1           0       21.300000   23.240000   22.040000
     46          1           0       22.720000   23.770000   22.140000
     47          8           0       23.360000   20.230000   22.940000
     48          1           0       22.900000   19.400000   22.850000
     49          1           0       24.060000   20.050000   23.570000
     50          8           0       22.450000   21.540000   16.780000
     51          1           0       21.690000   21.960000   16.370000
     52          1           0       22.850000   22.240000   17.300000
     53          8           0       23.720000   23.280000   18.760000
     54          1           0       23.370000   24.180000   18.810000
     55          1           0       23.320000   22.830000   19.500000
     56          8           0       22.440000   17.570000   23.780000
     57          1           0       22.380000   16.750000   24.260000
     58          1           0       21.620000   18.030000   23.970000
     59          8           0       20.180000   18.950000   24.600000
     60          1           0       20.590000   19.790000   24.820000
     61          1           0       19.270000   19.040000   24.900000
     62          8           0       21.700000   21.180000   24.720000
     63          1           0       21.990000   21.890000   25.300000
     64          1           0       22.400000   21.090000   24.080000
     65          8           0       20.900000   16.550000   16.000000
     66          1           0       20.160000   16.470000   15.400000
     67          1           0       20.570000   16.240000   16.840000
     68          8           0       25.070000   16.960000   19.320000
     69          1           0       24.820000   16.460000   20.100000
     70          1           0       24.310000   17.510000   19.140000
     71          8           0       14.350000   19.250000   19.640000
     72          1           0       15.060000   18.810000   20.100000
     73          1           0       13.960000   19.820000   20.300000
     74          8           0       15.930000   15.860000   21.000000
     75          1           0       16.180000   15.550000   20.130000
     76          1           0       16.730000   16.250000   21.360000
     77          8           0       20.700000   23.450000   15.160000
     78          1           0       20.640000   24.350000   14.840000
     79          1           0       20.060000   23.400000   15.860000
     80          8           0       23.920000   15.670000   21.280000
     81          1           0       24.550000   15.450000   21.960000
     82          1           0       23.160000   16.000000   21.760000
     83          8           0       18.130000   25.100000   22.520000
     84          1           0       17.180000   25.110000   22.470000
     85          1           0       18.420000   25.040000   21.610000
     86          8           0       17.450000   18.670000   24.860000
     87          1           0       17.340000   19.150000   25.680000
     88          1           0       17.580000   17.760000   25.130000
     89          8           0       16.640000   23.550000   15.690000
     90          1           0       15.790000   23.110000   15.690000
     91          1           0       16.990000   23.400000   16.570000
     92          8           0       20.850000   20.250000   13.430000
     93          1           0       21.750000   20.350000   13.740000
     94          1           0       20.350000   20.020000   14.210000
     95          8           0       25.650000   21.460000   17.740000
     96          1           0       25.170000   22.040000   18.330000
     97          1           0       25.540000   20.590000   18.110000
     98          8           0       19.300000   16.280000   24.590000
     99          1           0       19.330000   15.570000   25.220000
    100          1           0       19.800000   16.990000   25.000000
    101          8           0       16.390000   25.720000   19.740000
    102          1           0       16.940000   24.970000   19.560000
    103          1           0       15.660000   25.370000   20.250000
    104          8           0       17.570000   23.860000   24.900000
    105          1           0       17.620000   22.980000   24.540000
    106          1           0       18.030000   24.410000   24.260000
    107          8           0       15.310000   24.490000   22.100000
    108          1           0       14.650000   24.210000   22.730000
    109          1           0       15.630000   23.680000   21.700000
    110          8           0       21.240000   26.780000   21.700000
    111          1           0       22.170000   26.960000   21.530000
    112          1           0       21.160000   25.830000   21.570000
    113          8           0       21.450000   25.180000   24.500000
    114          1           0       21.590000   24.680000   23.690000
    115          1           0       20.500000   25.230000   24.600000
    116          8           0       23.760000   21.210000   14.340000
    117          1           0       23.960000   22.100000   14.050000
    118          1           0       23.880000   21.230000   15.290000
    119          8           0       23.480000   18.560000   15.030000
    120          1           0       23.700000   19.360000   14.560000
    121          1           0       22.960000   18.050000   14.400000
    122          8           0       17.840000   16.700000   15.150000
    123          1           0       17.830000   15.790000   15.440000
    124          1           0       18.180000   16.660000   14.250000
    125          8           0       14.460000   19.700000   24.340000
    126          1           0       13.510000   19.670000   24.280000
    127          1           0       14.760000   19.530000   23.440000
    128          8           0       22.650000   25.210000   17.190000
    129          1           0       23.150000   25.100000   16.380000
    130          1           0       21.740000   25.310000   16.900000
    131          8           0       22.610000   13.470000   19.660000
    132          1           0       23.280000   12.810000   19.840000
    133          1           0       22.930000   14.270000   20.080000
    134          8           0       23.790000   18.350000   26.050000
    135          1           0       24.350000   17.580000   26.180000
    136          1           0       23.580000   18.330000   25.120000
    137          8           0       19.210000   13.140000   20.990000
    138          1           0       20.060000   13.530000   21.210000
    139          1           0       19.380000   12.210000   20.930000
    140          8           0       15.740000   18.180000   14.290000
    141          1           0       16.410000   17.740000   14.810000
    142          1           0       15.160000   18.580000   14.930000
    143          8           0       22.970000   14.380000   15.690000
    144          1           0       22.360000   15.110000   15.840000
    145          1           0       22.930000   14.220000   14.750000
    146          8           0       13.480000   16.740000   21.190000
    147          1           0       13.330000   17.320000   20.440000
    148          1           0       14.320000   16.320000   21.000000
    149          8           0       24.800000   14.540000   17.830000
    150          1           0       24.770000   15.450000   18.110000
    151          1           0       24.030000   14.430000   17.270000
    152          8           0       15.420000   15.050000   16.640000
    153          1           0       16.090000   15.040000   17.320000
    154          1           0       15.020000   15.920000   16.710000
    155          8           0       14.020000   17.550000   17.220000
    156          1           0       13.730000   18.220000   17.840000
    157          1           0       13.280000   17.420000   16.630000
    158          8           0       27.250000   21.010000   21.440000
    159          1           0       26.790000   20.180000   21.550000
    160          1           0       27.850000   20.860000   20.710000
    161          8           0       18.980000   19.880000   27.010000
    162          1           0       18.980000   20.840000   27.050000
    163          1           0       19.900000   19.630000   27.030000
    164          8           0       16.740000   20.490000   12.700000
    165          1           0       16.880000   19.930000   11.940000
    166          1           0       17.160000   20.030000   13.430000
    167          8           0       13.190000   20.840000   22.110000
    168          1           0       13.100000   21.740000   21.810000
    169          1           0       12.290000   20.490000   22.070000
    170          8           0       25.800000   23.920000   16.400000
    171          1           0       25.600000   24.460000   17.160000
    172          1           0       25.720000   23.020000   16.720000
    173          8           0       17.090000   13.160000   22.860000
    174          1           0       17.210000   12.210000   22.940000
    175          1           0       17.850000   13.450000   22.350000
    176          8           0       25.160000   25.770000   18.290000
    177          1           0       25.380000   26.700000   18.220000
    178          1           0       24.200000   25.750000   18.340000
    179          8           0       21.460000   18.490000   27.550000
    180          1           0       22.240000   18.560000   27.000000
    181          1           0       21.730000   18.820000   28.400000
    182          8           0       16.890000   23.110000   13.070000
    183          1           0       16.890000   23.280000   14.010000
    184          1           0       16.630000   22.190000   12.990000
    185          8           0       26.790000   23.250000   22.490000
    186          1           0       26.960000   23.850000   21.770000
    187          1           0       26.820000   22.380000   22.100000
    188          8           0       18.140000   27.380000   18.470000
    189          1           0       17.950000   28.320000   18.470000
    190          1           0       17.430000   27.000000   18.990000
    191          8           0       20.710000   27.730000   19.110000
    192          1           0       19.860000   27.440000   18.790000
    193          1           0       20.670000   27.610000   20.060000
    194          8           0       12.930000   23.370000   20.790000
    195          1           0       13.030000   22.910000   19.960000
    196          1           0       13.310000   24.240000   20.640000
    197          8           0       19.100000   12.690000   17.240000
    198          1           0       18.840000   12.940000   16.350000
    199          1           0       20.030000   12.930000   17.290000
    200          8           0       14.960000   15.280000   23.930000
    201          1           0       15.330000   14.910000   23.130000
    202          1           0       14.100000   15.610000   23.660000
    203          8           0       18.790000   22.640000   27.490000
    204          1           0       18.080000   22.940000   28.060000
    205          1           0       18.830000   23.290000   26.790000
    206          8           0       14.800000   23.770000   25.110000
    207          1           0       15.650000   24.060000   24.800000
[...]
   Y335      31.42615   0.00278   0.00000   0.00432   0.00515  31.43130
   Z335      21.71295  -0.01298   0.00000  -0.00992  -0.01008  21.70287
   X336      34.10956   0.00597   0.00000  -0.00207  -0.00222  34.10734
   Y336      31.42615   0.00051   0.00000   0.00149   0.00227  31.42841
   Z336      22.90348   0.00761   0.00000   0.00110   0.00095  22.90443
   X337      31.65291  -0.00017   0.00000  -0.00299  -0.00316  31.64976
   Y337      30.08444   0.00259   0.00000   0.00191   0.00274  30.08718
   Z337      22.27987  -0.00048   0.00000  -0.00081  -0.00101  22.27886
   X338      43.55819   0.01935   0.00000   0.02082   0.02102  43.57921
   Y338      55.10441   0.00061   0.00000  -0.00601  -0.00569  55.09872
   Z338      35.24339  -0.00121   0.00000   0.00452   0.00499  35.24838
   X339      42.42435  -0.01473   0.00000  -0.01659  -0.01641  42.40794
   Y339      53.70602  -0.00206   0.00000   0.00492   0.00525  53.71127
   Z339      35.47016  -0.00310   0.00000  -0.00885  -0.00842  35.46174
   X340      42.99127  -0.00340   0.00000  -0.00275  -0.00253  42.98873
   Y340      56.33274  -0.00008   0.00000  -0.00251  -0.00222  56.33052
   Z340      36.45282   0.00158   0.00000  -0.00178  -0.00128  36.45153
   X341      22.24208  -0.00772   0.00000  -0.00890  -0.00922  22.23286
   Y341      28.72384  -0.02514   0.00000  -0.02238  -0.02185  28.70199
   Z341      42.21648   0.01148   0.00000   0.01473   0.01444  42.23092
   X342      23.58378   0.00253   0.00000  -0.00647  -0.00676  23.57702
   Y342      29.81988   0.00251   0.00000  -0.00913  -0.00861  29.81127
   Z342      41.70626  -0.01126   0.00000  -0.01424  -0.01449  41.69176
   X343      20.78699  -0.00565   0.00000  -0.00252  -0.00282  20.78417
   Y343      29.78208   0.00869   0.00000   0.00573   0.00629  29.78837
   Z343      42.27317   0.00321   0.00000   0.00630   0.00603  42.27920
   X344      39.87322   0.01073   0.00000   0.00513   0.00503  39.87826
   Y344      44.74871   0.00509   0.00000   0.00046   0.00041  44.74913
   Z344      53.30917   0.00388   0.00000   0.00620   0.00640  53.31557
   X345      39.70315   0.00433   0.00000   0.00658   0.00651  39.70965
   Y345      46.18491   0.00396   0.00000   0.00695   0.00688  46.19178
   Z345      54.40522  -0.00175   0.00000  -0.00274  -0.00251  54.40271
   X346      38.26695  -0.01469   0.00000  -0.01082  -0.01093  38.25603
   Y346      43.91724  -0.00928   0.00000  -0.00767  -0.00769  43.90954
   Z346      53.40366  -0.00184   0.00000  -0.00355  -0.00338  53.40029
   X347      46.56285  -0.01290   0.00000  -0.01682  -0.01670  46.54615
   Y347      52.91233   0.02346   0.00000   0.01232   0.01241  52.92474
   Z347      42.78340  -0.00364   0.00000  -0.00724  -0.00681  42.77659
   X348      46.33608   0.00610   0.00000   0.01130   0.01138  46.34747
   Y348      51.21158  -0.02261   0.00000  -0.01462  -0.01454  51.19704
   Z348      43.31252   0.00499   0.00000   0.00308   0.00348  43.31600
   X349      47.88566   0.00504   0.00000   0.00208   0.00220  47.88786
   Y349      52.83674  -0.00316   0.00000  -0.00195  -0.00186  52.83488
   Z349      41.55508  -0.00251   0.00000   0.00088   0.00132  41.55640
   X350      32.71116   0.01056   0.00000   0.01144   0.01117  32.72233
   Y350      26.09712   0.00932   0.00000   0.00372   0.00443  26.10155
   Z350      26.79632  -0.00671   0.00000  -0.00653  -0.00681  26.78950
   X351      32.33321  -0.00526   0.00000  -0.00449  -0.00479  32.32842
   Y351      24.54754  -0.00683   0.00000  -0.00222  -0.00153  24.54601
   Z351      27.64669   0.00344   0.00000   0.00133   0.00101  27.64770
   X352      31.14269  -0.00209   0.00000  -0.00059  -0.00085  31.14184
   Y352      26.55065   0.00085   0.00000   0.00213   0.00288  26.55354
   Z352      25.98373   0.00570   0.00000   0.01030   0.01002  25.99376
   X353      50.43679   0.00506   0.00000   0.00293   0.00258  50.43937
   Y353      25.00108  -0.01897   0.00000  -0.01538  -0.01523  24.98585
   Z353      36.92525   0.00587   0.00000   0.00032   0.00012  36.92537
   X354      51.21158  -0.00080   0.00000  -0.00398  -0.00431  51.20727
   Y354      26.38058   0.00525   0.00000   0.00128   0.00140  26.38198
   Z354      37.81342   0.00081   0.00000  -0.00143  -0.00160  37.81182
   X355      49.49193  -0.01117   0.00000  -0.00992  -0.01025  49.48168
   Y355      25.79476   0.00643   0.00000   0.00100   0.00120  25.79596
   Z355      35.60244  -0.01181   0.00000  -0.00719  -0.00738  35.59506
   X356      26.28609  -0.01435   0.00000  -0.01588  -0.01580  26.27029
   Y356      51.28717  -0.00503   0.00000  -0.00286  -0.00241  51.28476
   Z356      42.89678   0.00363   0.00000  -0.00137  -0.00109  42.89569
   X357      26.68293   0.00545   0.00000   0.00869   0.00875  26.69168
   Y357      49.51082   0.00593   0.00000   0.00626   0.00670  49.51752
   Z357      42.84009   0.00110   0.00000   0.00272   0.00295  42.84305
   X358      27.59000   0.00474   0.00000  -0.00031  -0.00020  27.58980
   Y358      52.06195   0.00194   0.00000   0.00017   0.00061  52.06257
   Z358      41.89523  -0.00301   0.00000   0.00084   0.00114  41.89637
   X359      52.57218   0.00915   0.00000   0.00864   0.00843  52.58061
   Y359      30.46239  -0.00558   0.00000  -0.00407  -0.00379  30.45859
   Z359      29.85767  -0.01073   0.00000  -0.00641  -0.00647  29.85120
   X360      50.81474  -0.00487   0.00000   0.00007  -0.00013  50.81461
   Y360      30.78364  -0.00029   0.00000  -0.00262  -0.00230  30.78134
   Z360      29.53642  -0.00517   0.00000  -0.00846  -0.00853  29.52789
   X361      52.83674  -0.00164   0.00000  -0.00354  -0.00375  52.83300
   Y361      30.99151   0.00300   0.00000   0.00088   0.00111  30.99262
   Z361      31.55843   0.01185   0.00000   0.00806   0.00801  31.56644
   X362      53.76271   0.01596   0.00000   0.01576   0.01579  53.77850
   Y362      44.23849   0.00097   0.00000  -0.00100  -0.00076  44.23773
   Z362      30.61356  -0.00284   0.00000  -0.00236  -0.00209  30.61147
   X363      51.96747  -0.00593   0.00000   0.00148   0.00151  51.96897
   Y363      44.03062   0.00556   0.00000   0.01108   0.01135  44.04197
   Z363      30.76474  -0.00252   0.00000  -0.00607  -0.00582  30.75892
   X364      54.40522   0.00024   0.00000   0.00044   0.00045  54.40567
   Y364      43.59598  -0.00334   0.00000  -0.00526  -0.00506  43.59092
   Z364      32.18204   0.00323   0.00000   0.00397   0.00423  32.18627
   X365      43.48260  -0.02026   0.00000  -0.01681  -0.01703  43.46557
   Y365      38.22916  -0.01662   0.00000  -0.01409  -0.01424  38.21492
   Z365      55.06662   0.00898   0.00000   0.00483   0.00489  55.07151
   X366      44.10621   0.00339   0.00000  -0.00200  -0.00219  44.10401
   Y366      39.81653   0.00711   0.00000  -0.00056  -0.00074  39.81579
   Z366      55.65243  -0.00057   0.00000  -0.00209  -0.00198  55.65045
   X367      44.42746   0.01532   0.00000   0.01671   0.01650  44.44396
   Y367      37.90791   0.00899   0.00000   0.01420   0.01407  37.92198
   Z367      53.55484  -0.00581   0.00000   0.00157   0.00164  53.55648
   X368      44.08731   0.01869   0.00000   0.01316   0.01312  44.10043
   Y368      36.71738  -0.00391   0.00000  -0.00526  -0.00460  36.71278
   Z368      20.23897   0.00057   0.00000  -0.00167  -0.00163  20.23733
   X369      42.85899  -0.01277   0.00000  -0.00957  -0.00959  42.84940
   Y369      37.37878   0.00361   0.00000   0.00074   0.00145  37.38023
   Z369      19.10513  -0.00391   0.00000   0.00148   0.00152  19.10665
   X370      43.14245  -0.00507   0.00000  -0.00202  -0.00208  43.14037
   Y370      36.07487  -0.00125   0.00000  -0.00017   0.00047  36.07534
   Z370      21.63736   0.00443   0.00000   0.00199   0.00201  21.63937
   X371      39.91102   0.00800   0.00000   0.00687   0.00641  39.91743
   Y371      22.88458  -0.00197   0.00000  -0.00201  -0.00192  22.88266
   Z371      47.62110  -0.00869   0.00000  -0.00473  -0.00505  47.61605
   X372      39.24961   0.00088   0.00000   0.00591   0.00548  39.25509
   Y372      24.32078   0.00723   0.00000   0.00458   0.00466  24.32543
   Z372      48.50927   0.00657   0.00000   0.00607   0.00578  48.51505
   X373      39.19292  -0.00048   0.00000   0.00312   0.00264  39.19556
   Y373      21.44839  -0.00730   0.00000  -0.00636  -0.00628  21.44211
   Z373      48.45258   0.00429   0.00000   0.00339   0.00303  48.45561
   X374      36.28274   0.00018   0.00000   0.00049   0.00050  36.28324
   Y374      49.47303  -0.01128   0.00000  -0.00899  -0.00892  49.46411
   Z374      51.06040   0.01217   0.00000   0.00529   0.00558  51.06598
   X375      38.02129   0.00845   0.00000   0.00691   0.00692  38.02821
   Y375      49.52972  -0.00169   0.00000  -0.00374  -0.00369  49.52603
   Z375      50.56907  -0.00305   0.00000  -0.00253  -0.00223  50.56684
   X376      35.43236  -0.00737   0.00000  -0.00528  -0.00525  35.42711
   Y376      50.47459   0.00696   0.00000   0.00207   0.00218  50.47677
   Z376      49.83208  -0.01139   0.00000  -0.00755  -0.00724  49.82484
   X377      26.87191  -0.02258   0.00000  -0.01500  -0.01508  26.85683
   Y377      35.62134   0.00087   0.00000  -0.00090   0.00001  35.62134
   Z377      22.77120  -0.01291   0.00000  -0.01005  -0.01015  22.76105
   X378      27.30654   0.00853   0.00000   0.01008   0.01004  27.31658
   Y378      37.37878   0.00446   0.00000   0.00067   0.00158  37.38036
   Z378      22.79010   0.00302   0.00000   0.00364   0.00359  22.79369
   X379      28.27030   0.01259   0.00000   0.00257   0.00248  28.27278
   Y379      34.80876  -0.00329   0.00000   0.00107   0.00194  34.81069
   Z379      23.56488   0.01394   0.00000   0.01371   0.01361  23.57849
   X380      44.69202   0.00893   0.00000   0.00778   0.00737  44.69939
   Y380      26.30499  -0.02787   0.00000  -0.02404  -0.02412  26.28087
   Z380      50.94702   0.01098   0.00000   0.00829   0.00808  50.95509
   X381      45.99593   0.00252   0.00000  -0.00115  -0.00154  45.99440
   Y381      27.40103   0.00712   0.00000   0.00139   0.00130  27.40233
   Z381      50.36120  -0.00523   0.00000  -0.00342  -0.00359  50.35761
   X382      43.14245  -0.00405   0.00000   0.00736   0.00697  43.14942
   Y382      27.17426   0.01576   0.00000   0.01420   0.01416  27.18842
   Z382      50.60687  -0.00255   0.00000   0.00128   0.00109  50.60795
   X383      34.01507   0.00916   0.00000   0.01670   0.01632  34.03139
   Y383      28.89391  -0.01246   0.00000  -0.00571  -0.00566  28.88825
   Z383      53.80050  -0.01284   0.00000  -0.01728  -0.01749  53.78301
   X384      34.73317   0.00387   0.00000   0.00322   0.00284  34.73601
   Y384      29.38524   0.00227   0.00000  -0.00022  -0.00022  29.38502
   Z384      55.38787   0.00440   0.00000  -0.00090  -0.00109  55.38678
   X385      33.44815  -0.01353   0.00000  -0.01971  -0.02006  33.42810
   Y385      30.46239   0.01116   0.00000   0.00747   0.00754  30.46993
   Z385      53.06351   0.00044   0.00000   0.00493   0.00475  53.06826
         Item               Value     Threshold  Converged?
 Maximum Force            0.034677     0.000450     NO 
 RMS     Force            0.010133     0.000300     NO 
 Maximum Displacement     0.028822     0.001800     NO 
 RMS     Displacement     0.008823     0.001200     NO 
 Predicted change in Energy=-7.197184D-02
 GradGradGradGradGradGradGradGradGradGradGradGradGradGradGradGradGradGrad

 Leave Link  103 at Tue May  8 06:59:21 2018, MaxMem= 14763950080 cpu:      3590.4
 (Enter /cm/shared/gaussian/g09.e01/intel64-sandybridge/g09/l9999.exe)
 1\1\GINC-POPLE01\Force\RPBE1PBE\CC-pVDZ\Br1H256O128(1-)\M.PELUSO\08-Ma
 y-2018\0\\#p PBE1PBE/cc-pvDZ force Counterpoise=2 noSymm\\forces on ch
 loride comput - NWATER: 128\\-1,1\Br,20.,20.,20.\O,22.59,21.7,20.88\H,
 22.83,21.17,21.64\H,21.9,21.19,20.44\O,21.14,17.02,21.2\H,21.35,17.3,2
 2.09\H,20.93,17.83,20.73\O,19.9,22.62,17.7\H,19.76,22.01,18.42\H,19.31
 ,22.32,17.01\O,17.25,21.35,18.41\H,17.96,21.26,19.05\H,16.47,21.54,18.
 93\O,19.41,22.13,23.02\H,19.68,21.28,22.68\H,20.06,22.35,23.68\O,18.18
 ,16.91,21.79\H,18.9,17.25,21.26\H,18.55,16.83,22.67\O,23.46,18.89,18.0
 5\H,22.85,19.55,18.38\H,23.45,19.02,17.1\O,16.27,19.2,22.04\H,17.05,19
 .09,21.49\H,16.46,18.68,22.83\O,20.31,19.17,15.79\H,20.84,18.39,15.93\
 H,20.49,19.72,16.55\O,16.59,22.08,21.35\H,17.52,22.18,21.53\H,16.32,21
 .32,21.87\O,18.78,24.34,19.5\H,19.45,24.97,19.27\H,18.98,23.57,18.97\O
 ,17.91,16.26,18.52\H,17.71,17.19,18.62\H,18.86,16.21,18.67\O,18.27,20.
 9,15.86\H,17.9,20.97,16.74\H,18.39,19.96,15.73\O,20.61,15.59,18.81\H,2
 1.,16.12,19.51\H,20.76,14.69,19.08\O,21.8,24.01,22.3\H,21.3,23.24,22.0
 4\H,22.72,23.77,22.14\O,23.36,20.23,22.94\H,22.9,19.4,22.85\H,24.06,20
 .05,23.57\O,22.45,21.54,16.78\H,21.69,21.96,16.37\H,22.85,22.24,17.3\O
 ,23.72,23.28,18.76\H,23.37,24.18,18.81\H,23.32,22.83,19.5\O,22.44,17.5
 7,23.78\H,22.38,16.75,24.26\H,21.62,18.03,23.97\O,20.18,18.95,24.6\H,2
 0.59,19.79,24.82\H,19.27,19.04,24.9\O,21.7,21.18,24.72\H,21.99,21.89,2
 5.3\H,22.4,21.09,24.08\O,20.9,16.55,16.\H,20.16,16.47,15.4\H,20.57,16.
 24,16.84\O,25.07,16.96,19.32\H,24.82,16.46,20.1\H,24.31,17.51,19.14\O,
 14.35,19.25,19.64\H,15.06,18.81,20.1\H,13.96,19.82,20.3\O,15.93,15.86,
 21.\H,16.18,15.55,20.13\H,16.73,16.25,21.36\O,20.7,23.45,15.16\H,20.64
 ,24.35,14.84\H,20.06,23.4,15.86\O,23.92,15.67,21.28\H,24.55,15.45,21.9
 6\H,23.16,16.,21.76\O,18.13,25.1,22.52\H,17.18,25.11,22.47\H,18.42,25.
 04,21.61\O,17.45,18.67,24.86\H,17.34,19.15,25.68\H,17.58,17.76,25.13\O
 ,16.64,23.55,15.69\H,15.79,23.11,15.69\H,16.99,23.4,16.57\O,20.85,20.2
 5,13.43\H,21.75,20.35,13.74\H,20.35,20.02,14.21\O,25.65,21.46,17.74\H,
 25.17,22.04,18.33\H,25.54,20.59,18.11\O,19.3,16.28,24.59\H,19.33,15.57
 ,25.22\H,19.8,16.99,25.\O,16.39,25.72,19.74\H,16.94,24.97,19.56\H,15.6
 6,25.37,20.25\O,17.57,23.86,24.9\H,17.62,22.98,24.54\H,18.03,24.41,24.
 26\O,15.31,24.49,22.1\H,14.65,24.21,22.73\H,15.63,23.68,21.7\O,21.24,2
 6.78,21.7\H,22.17,26.96,21.53\H,21.16,25.83,21.57\O,21.45,25.18,24.5\H
 ,21.59,24.68,23.69\H,20.5,25.23,24.6\O,23.76,21.21,14.34\H,23.96,22.1,
 14.05\H,23.88,21.23,15.29\O,23.48,18.56,15.03\H,23.7,19.36,14.56\H,22.
 96,18.05,14.4\O,17.84,16.7,15.15\H,17.83,15.79,15.44\H,18.18,16.66,14.
 25\O,14.46,19.7,24.34\H,13.51,19.67,24.28\H,14.76,19.53,23.44\O,22.65,
 25.21,17.19\H,23.15,25.1,16.38\H,21.74,25.31,16.9\O,22.61,13.47,19.66\
 H,23.28,12.81,19.84\H,22.93,14.27,20.08\O,23.79,18.35,26.05\H,24.35,17
 .58,26.18\H,23.58,18.33,25.12\O,19.21,13.14,20.99\H,20.06,13.53,21.21\
 H,19.38,12.21,20.93\O,15.74,18.18,14.29\H,16.41,17.74,14.81\H,15.16,18
 .58,14.93\O,22.97,14.38,15.69\H,22.36,15.11,15.84\H,22.93,14.22,14.75\
 O,13.48,16.74,21.19\H,13.33,17.32,20.44\H,14.32,16.32,21.\O,24.8,14.54
 ,17.83\H,24.77,15.45,18.11\H,24.03,14.43,17.27\O,15.42,15.05,16.64\H,1
 6.09,15.04,17.32\H,15.02,15.92,16.71\O,14.02,17.55,17.22\H,13.73,18.22
 ,17.84\H,13.28,17.42,16.63\O,27.25,21.01,21.44\H,26.79,20.18,21.55\H,2
 7.85,20.86,20.71\O,18.98,19.88,27.01\H,18.98,20.84,27.05\H,19.9,19.63,
 27.03\O,16.74,20.49,12.7\H,16.88,19.93,11.94\H,17.16,20.03,13.43\O,13.
 19,20.84,22.11\H,13.1,21.74,21.81\H,12.29,20.49,22.07\O,25.8,23.92,16.
 4\H,25.6,24.46,17.16\H,25.72,23.02,16.72\O,17.09,13.16,22.86\H,17.21,1
 2.21,22.94\H,17.85,13.45,22.35\O,25.16,25.77,18.29\H,25.38,26.7,18.22\
 H,24.2,25.75,18.34\O,21.46,18.49,27.55\H,22.24,18.56,27.\H,21.73,18.82
 ,28.4\O,16.89,23.11,13.07\H,16.89,23.28,14.01\H,16.63,22.19,12.99\O,26
 .79,23.25,22.49\H,26.96,23.85,21.77\H,26.82,22.38,22.1\O,18.14,27.38,1
 8.47\H,17.95,28.32,18.47\H,17.43,27.,18.99\O,20.71,27.73,19.11\H,19.86
 ,27.44,18.79\H,20.67,27.61,20.06\O,12.93,23.37,20.79\H,13.03,22.91,19.
 96\H,13.31,24.24,20.64\O,19.1,12.69,17.24\H,18.84,12.94,16.35\H,20.03,
 12.93,17.29\O,14.96,15.28,23.93\H,15.33,14.91,23.13\H,14.1,15.61,23.66
 \O,18.79,22.64,27.49\H,18.08,22.94,28.06\H,18.83,23.29,26.79\O,14.8,23
 .77,25.11\H,15.65,24.06,24.8\H,15.,23.14,25.8\O,25.52,16.76,14.31\H,25
 .35,16.85,13.37\H,24.79,17.21,14.73\O,16.,13.4,18.99\H,15.62,13.23,18.
 12\H,16.9,13.07,18.92\O,27.87,16.84,18.57\H,26.98,17.03,18.87\H,28.12,
 16.04,19.04\O,13.89,24.26,18.08\H,13.74,23.81,17.25\H,13.31,25.02,18.0
 5\O,20.7,22.68,11.92\H,20.28,23.43,12.35\H,20.7,21.99,12.59\O,26.39,19
 .77,14.93\H,26.54,20.01,15.84\H,26.27,18.82,14.94\O,22.95,22.74,26.63\
 H,22.16,23.04,27.07\H,23.36,23.54,26.29\O,18.61,27.93,22.1\H,19.1,27.2
 6,22.58\H,19.28,28.55,21.82\O,19.52,26.74,15.78\H,19.36,27.48,15.19\H,
 18.9,26.87,16.5\O,21.75,15.6,26.19\H,21.02,14.99,26.18\H,21.47,16.3,26
 .78\O,25.46,25.41,23.35\H,25.55,24.47,23.2\H,25.67,25.53,24.27\O,15.01
 ,19.97,26.94\H,14.82,20.04,26.\H,14.18,20.21,27.37\O,26.95,20.06,24.52
 \H,26.9,20.73,23.84\H,27.58,19.42,24.19\O,22.78,16.9,13.17\H,23.11,16.
 04,12.91\H,21.85,16.9,12.92\O,13.59,22.7,15.42\H,13.48,21.81,15.75\H,1
 2.74,23.12,15.55\O,18.8,25.07,13.15\H,18.28,24.34,13.48\H,18.46,25.84,
 13.61\O,26.75,25.4,20.57\H,26.5,26.31,20.72\H,26.19,25.11,19.84\O,21.9
 3,11.77,17.62\H,21.52,11.04,18.09\H,22.12,12.42,18.31\O,27.24,15.28,21
 .16\H,26.73,14.94,21.89\H,27.04,16.22,21.16\O,21.51,12.48,22.54\H,21.8
 3,11.65,22.19\H,21.47,12.34,23.49\O,27.7,18.,21.5\H,28.51,17.59,21.21\
 H,27.94,18.48,22.29\O,24.23,24.09,13.98\H,24.71,24.07,14.81\H,24.41,24
 .95,13.62\O,25.68,15.16,23.24\H,26.18,15.62,23.91\H,25.28,14.43,23.71\
 O,27.83,19.37,17.8\H,28.15,19.86,18.55\H,28.01,18.45,18.02\O,12.23,17.
 97,23.3\H,12.61,17.61,22.5\H,11.65,18.66,23.\O,13.9,17.05,26.18\H,14.3
 9,17.58,25.55\H,14.38,16.23,26.23\O,19.6,16.2,12.66\H,19.82,16.29,11.7
 3\H,19.5,15.26,12.8\O,23.81,13.19,24.11\H,23.32,12.82,24.84\H,23.22,13
 .1,23.36\O,25.05,20.9,27.44\H,25.03,20.4,26.62\H,24.61,21.72,27.23\O,1
 4.8,25.07,14.21\H,13.91,24.77,14.36\H,15.33,24.6,14.86\O,16.69,27.13,2
 3.86\H,17.23,27.33,23.1\H,16.8,27.88,24.44\O,16.48,13.83,25.53\H,17.09
 ,13.41,24.93\H,16.02,14.48,24.99\O,14.82,12.72,21.31\H,15.62,12.98,21.
 77\H,14.87,13.19,20.47\O,22.79,25.81,26.8\H,22.54,25.51,25.93\H,22.2,2
 6.55,26.98\O,13.06,19.95,15.12\H,12.37,19.62,15.69\H,12.63,20.07,14.27
 \O,17.12,20.52,28.91\H,16.41,20.87,28.37\H,17.8,20.27,28.28\O,21.81,28
 .11,15.72\H,21.13,27.51,16.02\H,22.63,27.65,15.9\O,10.79,20.2,19.51\H,
 10.04,20.63,19.92\H,11.34,19.93,20.24\O,15.19,28.19,20.47\H,15.64,28.9
 5,20.1\H,15.56,27.44,19.99\O,19.52,14.06,26.32\H,19.09,13.22,26.13\H,1
 8.91,14.5,26.92\O,20.48,18.34,10.6\H,19.6,18.49,10.26\H,20.56,18.96,11
 .33\O,16.3,17.54,28.09\H,16.26,17.74,29.03\H,16.08,18.36,27.66\O,17.33
 ,16.63,11.49\H,18.05,16.63,12.12\H,16.75,15.92,11.79\O,23.05,29.16,18.
 65\H,22.45,28.42,18.77\H,22.75,29.81,19.29\O,11.77,15.2,22.34\H,12.48,
 15.78,22.07\H,11.,15.76,22.37\O,21.1,23.68,28.21\H,21.01,24.44,28.79\H
 ,20.25,23.24,28.26\O,24.64,28.,22.64\H,24.52,27.1,22.92\H,25.34,27.96,
 21.99\O,17.31,13.81,14.18\H,17.11,12.99,14.63\H,16.48,14.05,13.75\O,26
 .69,13.23,19.54\H,27.1,13.96,20.01\H,26.19,13.65,18.84\O,13.91,27.14,2
 2.7\H,14.12,26.2,22.67\H,14.6,27.55,22.17\O,27.82,16.12,15.8\H,26.89,1
 6.29,15.63\H,27.96,16.4,16.7\O,28.45,23.41,16.2\H,27.5,23.3,16.28\H,28
 .79,23.07,17.03\O,23.01,20.23,29.14\H,23.34,21.07,29.45\H,23.51,20.06,
 28.34\O,23.33,19.43,10.71\H,22.68,19.78,10.11\H,22.83,19.09,11.45\O,21
 .12,12.11,25.2\H,20.77,12.87,25.67\H,20.74,11.35,25.64\O,19.2,26.18,27
 .02\H,20.12,26.21,26.76\H,18.75,26.71,26.37\O,14.22,18.85,12.05\H,14.4
 5,19.78,12.06\H,14.96,18.42,12.47\O,23.65,13.92,26.96\H,24.34,14.5,26.
 65\H,22.83,14.38,26.78\O,18.,15.29,28.47\H,18.38,15.55,29.31\H,17.7,16
 .12,28.08\\Version=ES64L-G09RevE.01\HF=-9773.2677619\RMSD=1.176e-09\RM
 SF=1.013e-02\Dipole=-5.5206305,-1.7816752,9.6854554\Quadrupole=-464.44
 36954,-106.1441631,570.5878585,-1738.2980265,-1111.3729326,-1096.16689
 37\PG=C01 [X(Br1H256O128)]\\@


 IF THE FACTS DO NOT CONFORM TO THE THEORY, THEY MUST BE DISPOSED OF.
 Job cpu time:       6 days  8 hours 54 minutes 58.8 seconds.
 File lengths (MBytes):  RWF=   7285 Int=      0 D2E=      0 Chk=   2411 Scr=      1
 Normal termination of Gaussian 09 at Tue May  8 06:59:50 2018.
