 Entering Gaussian System, Link 0=/cm/shared/gaussian/g09.e01/intel64-sandybridge/g09/g09
 Initial command:
 /cm/shared/gaussian/g09.e01/intel64-sandybridge/g09/l1.exe "/local/scratch/m.peluso/128_wat/Gau-15529.inp" -scrdir="/local/scratch/m.peluso/128_wat/"
 Entering Link 1 = /cm/shared/gaussian/g09.e01/intel64-sandybridge/g09/l1.exe PID=     15530.
  
 Copyright (c) 1988,1990,1992,1993,1995,1998,2003,2009,2015,
            Gaussian, Inc.  All Rights Reserved.
  
 This is part of the Gaussian(R) 09 program.  It is based on
 the Gaussian(R) 03 system (copyright 2003, Gaussian, Inc.),
 the Gaussian(R) 98 system (copyright 1998, Gaussian, Inc.),
 the Gaussian(R) 94 system (copyright 1995, Gaussian, Inc.),
 the Gaussian 92(TM) system (copyright 1992, Gaussian, Inc.),
 the Gaussian 90(TM) system (copyright 1990, Gaussian, Inc.),
 the Gaussian 88(TM) system (copyright 1988, Gaussian, Inc.),
 the Gaussian 86(TM) system (copyright 1986, Carnegie Mellon
 University), and the Gaussian 82(TM) system (copyright 1983,
 Carnegie Mellon University). Gaussian is a federally registered
 trademark of Gaussian, Inc.
  
 This software contains proprietary and confidential information,
 including trade secrets, belonging to Gaussian, Inc.
  
 This software is provided under written license and may be
 used, copied, transmitted, or stored only in accord with that
 written license.
  
 The following legend is applicable only to US Government
 contracts under FAR:
  
                    RESTRICTED RIGHTS LEGEND
  
 Use, reproduction and disclosure by the US Government is
 subject to restrictions as set forth in subparagraphs (a)
 and (c) of the Commercial Computer Software - Restricted
 Rights clause in FAR 52.227-19.
  
 Gaussian, Inc.
 340 Quinnipiac St., Bldg. 40, Wallingford CT 06492
  
  
 ---------------------------------------------------------------
 Warning -- This program may not be used in any manner that
 competes with the business of Gaussian, Inc. or will provide
 assistance to any competitor of Gaussian, Inc.  The licensee
 of this program is prohibited from giving any competitor of
 Gaussian, Inc. access to this program.  By using this program,
 the user acknowledges that Gaussian, Inc. is engaged in the
 business of creating and licensing software in the field of
 computational chemistry and represents and warrants to the
 licensee that it is not a competitor of Gaussian, Inc. and that
 it will not use this program in any manner prohibited above.
 ---------------------------------------------------------------
  

 Cite this work as:
 Gaussian 09, Revision E.01,
 M. J. Frisch, G. W. Trucks, H. B. Schlegel, G. E. Scuseria, 
 M. A. Robb, J. R. Cheeseman, G. Scalmani, V. Barone, B. Mennucci, 
 G. A. Petersson, H. Nakatsuji, M. Caricato, X. Li, H. P. Hratchian, 
 A. F. Izmaylov, J. Bloino, G. Zheng, J. L. Sonnenberg, M. Hada, 
 M. Ehara, K. Toyota, R. Fukuda, J. Hasegawa, M. Ishida, T. Nakajima, 
 Y. Honda, O. Kitao, H. Nakai, T. Vreven, J. A. Montgomery, Jr., 
 J. E. Peralta, F. Ogliaro, M. Bearpark, J. J. Heyd, E. Brothers, 
 K. N. Kudin, V. N. Staroverov, T. Keith, R. Kobayashi, J. Normand, 
 K. Raghavachari, A. Rendell, J. C. Burant, S. S. Iyengar, J. Tomasi, 
 M. Cossi, N. Rega, J. M. Millam, M. Klene, J. E. Knox, J. B. Cross, 
 V. Bakken, C. Adamo, J. Jaramillo, R. Gomperts, R. E. Stratmann, 
 O. Yazyev, A. J. Austin, R. Cammi, C. Pomelli, J. W. Ochterski, 
 R. L. Martin, K. Morokuma, V. G. Zakrzewski, G. A. Voth, 
 P. Salvador, J. J. Dannenberg, S. Dapprich, A. D. Daniels, 
 O. Farkas, J. B. Foresman, J. V. Ortiz, J. Cioslowski, 
 and D. J. Fox, Gaussian, Inc., Wallingford CT, 2013.
 
 ******************************************
 Gaussian 09:  ES64L-G09RevE.01 30-Nov-2015
                 4-May-2018 
 ******************************************
 %Mem=110GB
 %NProcShared=64
 Will use up to   64 processors via shared memory.
 %chk=snap95.chk
 ----------------------------------------------
 #p PBE1PBE/cc-pvDZ force Counterpoise=2 noSymm
 ----------------------------------------------
 1/10=7,30=1,38=1,62=2/1,3;
 2/12=2,15=1,17=6,18=5,40=1/2;
 1/10=7,30=1,38=1,53=2,62=2,63=101/22;
 3/5=16,11=2,16=1,25=1,30=1,71=1,74=-13/1,2,3;
 4//1;
 5/5=2,38=5/2;
 6/7=2,8=2,9=2,10=2,28=1/1;
 7/7=1,29=1,30=1,33=-1/1,2,3,16;
 1/10=7,30=1,53=2,62=2,63=101/22;
 3/5=7,6=11,11=2,16=1,25=1,30=1,71=1,74=-13,82=7/1,2,3;
 4//1;
 5/5=2,38=5/2;
 6/7=2,8=2,9=2,10=2,28=1/1;
 7/7=1,29=1,30=1,33=-1/1,2,3,16;
 1/10=7,30=1,53=2,62=2,63=101/22(-5);
 7/9=1,29=1,44=-1/16;
 1/10=7,30=1,62=2/3;
 99//99;
 Leave Link    1 at Fri May  4 06:58:01 2018, MaxMem= 14763950080 cpu:       331.1
 (Enter /cm/shared/gaussian/g09.e01/intel64-sandybridge/g09/l101.exe)
 ---------------------------------------
 forces on chloride comput - NWATER: 128
 ---------------------------------------
 Symbolic Z-matrix:
 Charge = -1 Multiplicity = 1 in supermolecule
 Charge = -1 Multiplicity = 1 in fragment      1.
 Charge =  0 Multiplicity = 1 in fragment      2.
 Br(Fragment=1)        20.       20.       20. 
 O(Fragment=2)         17.24     20.22     21.49 
 H(Fragment=2)         18.14     20.17     21.19 
 H(Fragment=2)         17.29     20.68     22.33 
 O(Fragment=2)         20.17     17.87     17.54 
 H(Fragment=2)         20.73     18.23     16.85 
 H(Fragment=2)         20.17     18.53     18.23 
 O(Fragment=2)         19.52     23.15     19.07 
 H(Fragment=2)         19.69     22.32     19.51 
 H(Fragment=2)         19.31     23.76     19.78 
 O(Fragment=2)         22.71     21.24     18.43 
 H(Fragment=2)         23.42     20.82     18.93 
 H(Fragment=2)         21.91     21.       18.9 
 O(Fragment=2)         21.65     18.94     22.72 
 H(Fragment=2)         21.49     18.       22.77 
 H(Fragment=2)         21.       19.25     22.09 
 O(Fragment=2)         21.82     17.11     19.76 
 H(Fragment=2)         21.63     18.       20.06 
 H(Fragment=2)         21.06     16.89     19.21 
 O(Fragment=2)         18.42     20.33     16.83 
 H(Fragment=2)         19.29     20.72     16.74 
 H(Fragment=2)         18.42     19.94     17.7 
 O(Fragment=2)         20.69     21.4      16.38 
 H(Fragment=2)         21.27     21.18     17.11 
 H(Fragment=2)         21.29     21.5      15.63 
 O(Fragment=2)         17.8      16.51     17.89 
 H(Fragment=2)         18.58     17.05     17.84 
 H(Fragment=2)         17.11     17.1      18.19 
 O(Fragment=2)         16.57     22.64     17.84 
 H(Fragment=2)         17.04     21.98     18.35 
 H(Fragment=2)         16.73     23.46     18.3 
 O(Fragment=2)         16.18     18.04     22.51 
 H(Fragment=2)         16.55     18.89     22.24 
 H(Fragment=2)         15.5      18.27     23.13 
 O(Fragment=2)         20.8      23.83     21.86 
 H(Fragment=2)         21.68     23.64     21.52 
 H(Fragment=2)         20.95     24.45     22.57 
 O(Fragment=2)         18.09     16.52     23.34 
 H(Fragment=2)         18.83     16.73     22.77 
 H(Fragment=2)         17.39     17.11     23.05 
 O(Fragment=2)         21.37     24.43     17.32 
 H(Fragment=2)         20.95     24.03     18.08 
 H(Fragment=2)         20.71     24.4      16.63 
 O(Fragment=2)         23.64     16.78     22.1 
 H(Fragment=2)         22.82     16.75     21.61 
 H(Fragment=2)         23.81     17.71     22.23 
 O(Fragment=2)         14.74     20.28     20.17 
 H(Fragment=2)         15.48     20.41     20.77 
 H(Fragment=2)         14.41     21.16     20. 
 O(Fragment=2)         20.83     19.21     25.32 
 H(Fragment=2)         21.21     19.32     24.45 
 H(Fragment=2)         20.25     19.96     25.43 
 O(Fragment=2)         21.1      22.82     24.64 
 H(Fragment=2)         20.93     22.68     23.71 
 H(Fragment=2)         21.87     22.28     24.83 
 O(Fragment=2)         24.9      20.23     19.5 
 H(Fragment=2)         24.7      19.53     20.12 
 H(Fragment=2)         25.85     20.23     19.44 
 O(Fragment=2)         19.94     14.72     19.85 
 H(Fragment=2)         19.25     15.29     19.5 
 H(Fragment=2)         20.58     14.66     19.14 
 O(Fragment=2)         23.34     20.72     24.48 
 H(Fragment=2)         23.2      20.38     23.59 
 H(Fragment=2)         24.02     20.15     24.84 
 O(Fragment=2)         20.87     16.01     22.65 
 H(Fragment=2)         20.81     15.36     21.96 
 H(Fragment=2)         21.35     15.58     23.36 
 O(Fragment=2)         23.95     16.49     18.1 
 H(Fragment=2)         24.37     15.65     18.27 
 H(Fragment=2)         23.41     16.65     18.87 
 O(Fragment=2)         15.53     18.34     18.39 
 H(Fragment=2)         15.27     18.9      19.12 
 H(Fragment=2)         15.53     18.92     17.63 
 O(Fragment=2)         17.81     23.77     23.5 
 H(Fragment=2)         17.82     24.64     23.9 
 H(Fragment=2)         18.37     23.84     22.74 
 O(Fragment=2)         16.04     16.16     20.54 
 H(Fragment=2)         15.93     16.48     21.44 
 H(Fragment=2)         16.03     16.95     20. 
 O(Fragment=2)         15.69     20.4      16.19 
 H(Fragment=2)         16.64     20.46     16.22 
 H(Fragment=2)         15.38     21.29     16.41 
 O(Fragment=2)         22.13     18.54     15.35 
 H(Fragment=2)         22.8      19.03     15.83 
 H(Fragment=2)         22.02     19.04     14.54 
 O(Fragment=2)         19.02     25.55     20.85 
 H(Fragment=2)         19.68     25.01     21.28 
 H(Fragment=2)         19.52     26.29     20.5 
 O(Fragment=2)         23.67     23.22     16.78 
 H(Fragment=2)         22.96     23.81     17.03 
 H(Fragment=2)         23.75     22.61     17.51 
 O(Fragment=2)         17.26     21.35     24.27 
 H(Fragment=2)         17.64     21.26     25.14 
 H(Fragment=2)         17.49     22.24     24. 
 O(Fragment=2)         24.39     19.92     16.24 
 H(Fragment=2)         24.37     20.46     17.03 
 H(Fragment=2)         24.95     20.41     15.63 
 O(Fragment=2)         18.21     20.48     13.89 
 H(Fragment=2)         18.72     19.82     13.41 
 H(Fragment=2)         18.54     20.42     14.79 
 O(Fragment=2)         17.87     24.       15.34 
 H(Fragment=2)         17.81     23.36     16.04 
 H(Fragment=2)         18.52     23.64     14.74 
 O(Fragment=2)         17.35     18.       25.35 
 H(Fragment=2)         17.32     18.93     25.1 
 H(Fragment=2)         17.77     17.57     24.61 
 O(Fragment=2)         25.12     19.58     22.74 
 H(Fragment=2)         25.34     20.51     22.77 
 H(Fragment=2)         25.93     19.13     23. 
 O(Fragment=2)         24.64     24.04     21.26 
 H(Fragment=2)         25.03     23.2      21.46 
 H(Fragment=2)         24.33     23.95     20.35 
 O(Fragment=2)         17.69     13.93     21.06 
 H(Fragment=2)         17.36     14.78     20.77 
 H(Fragment=2)         18.64     14.04     21.09 
 O(Fragment=2)         16.38     25.28     20.64 
 H(Fragment=2)         17.31     25.21     20.87 
 H(Fragment=2)         16.28     26.18     20.33 
 O(Fragment=2)         22.49     22.25     14.5 
 H(Fragment=2)         22.73     22.94     13.88 
 H(Fragment=2)         22.9      22.5      15.32 
 O(Fragment=2)         21.15     14.59     17.55 
 H(Fragment=2)         21.69     14.99     16.86 
 H(Fragment=2)         20.73     13.85     17.11 
 O(Fragment=2)         17.57     15.89     15.19 
 H(Fragment=2)         17.51     16.02     16.14 
 H(Fragment=2)         16.97     16.54     14.83 
 O(Fragment=2)         22.85     15.91     15.65 
 H(Fragment=2)         22.62     16.72     15.18 
 H(Fragment=2)         23.49     16.18     16.3 
 O(Fragment=2)         21.57     16.73     26.1 
 H(Fragment=2)         21.       16.59     26.85 
 H(Fragment=2)         21.29     17.57     25.74 
 O(Fragment=2)         25.58     17.61     16.34 
 H(Fragment=2)         25.15     18.46     16.4 
 H(Fragment=2)         25.33     17.15     17.14 
 O(Fragment=2)         14.47     21.86     24.16 
 H(Fragment=2)         15.36     21.54     24.31 
 H(Fragment=2)         14.49     22.77     24.46 
 O(Fragment=2)         19.53     22.87     13.35 
 H(Fragment=2)         19.43     22.03     13.8 
 H(Fragment=2)         20.13     22.68     12.63 
 O(Fragment=2)         18.98     21.2      26.39 
 H(Fragment=2)         18.67     20.94     27.26 
 H(Fragment=2)         19.33     22.08     26.52 
 O(Fragment=2)         15.97     18.3      14.07 
 H(Fragment=2)         16.4      19.05     14.47 
 H(Fragment=2)         15.05     18.39     14.33 
 O(Fragment=2)         25.48     15.06     21.63 
 H(Fragment=2)         25.28     14.76     20.74 
 H(Fragment=2)         24.71     15.57     21.88 
 O(Fragment=2)         22.46     26.94     18.21 
 H(Fragment=2)         21.63     27.37     18.43 
 H(Fragment=2)         22.2      26.12     17.79 
 O(Fragment=2)         21.07     25.85     23.46 
 H(Fragment=2)         21.31     26.22     24.31 
 H(Fragment=2)         20.98     26.61     22.89 
 O(Fragment=2)         13.71     15.52     19.15 
 H(Fragment=2)         14.58     15.69     19.51 
 H(Fragment=2)         13.1      15.81     19.83 
 O(Fragment=2)         19.49     17.25     13.2 
 H(Fragment=2)         19.08     16.76     13.91 
 H(Fragment=2)         20.28     16.76     12.99 
 O(Fragment=2)         12.57     18.38     20.92 
 H(Fragment=2)         12.27     17.72     21.53 
 H(Fragment=2)         13.24     18.87     21.41 
 O(Fragment=2)         22.64     12.84     20.65 
 H(Fragment=2)         21.78     13.26     20.65 
 H(Fragment=2)         22.76     12.53     21.54 
 O(Fragment=2)         25.15     22.74     25.35 
 H(Fragment=2)         24.86     22.9      26.25 
 H(Fragment=2)         24.47     22.18     24.98 
 O(Fragment=2)         19.08     17.55     27.52 
 H(Fragment=2)         18.94     17.98     26.67 
 H(Fragment=2)         18.27     17.05     27.66 
 O(Fragment=2)         20.9      19.64     12.97 
 H(Fragment=2)         20.96     19.95     12.07 
 H(Fragment=2)         20.57     18.75     12.9 
 O(Fragment=2)         26.3      22.       22.72 
 H(Fragment=2)         26.4      22.21     23.65 
 H(Fragment=2)         27.17     21.72     22.44 
 O(Fragment=2)         17.41     14.19     24.91 
 H(Fragment=2)         17.6      15.09     24.66 
 H(Fragment=2)         16.51     14.21     25.22 
 O(Fragment=2)         22.51     20.67     27.66 
 H(Fragment=2)         22.05     20.36     26.88 
 H(Fragment=2)         23.44     20.58     27.44 
 O(Fragment=2)         14.03     18.95     24. 
 H(Fragment=2)         14.22     19.73     24.52 
 H(Fragment=2)         13.66     18.33     24.63 
 O(Fragment=2)         12.68     18.64     18.25 
 H(Fragment=2)         13.26     17.9      18.07 
 H(Fragment=2)         12.83     18.85     19.17 
 O(Fragment=2)         27.32     19.33     19.28 
 H(Fragment=2)         27.19     18.5      19.74 
 H(Fragment=2)         28.27     19.4      19.17 
 O(Fragment=2)         15.99     22.4      13.27 
 H(Fragment=2)         16.69     21.91     13.69 
 H(Fragment=2)         15.93     23.22     13.76 
 O(Fragment=2)         18.13     12.12     18.85 
 H(Fragment=2)         18.2      12.86     19.45 
 H(Fragment=2)         17.29     12.23     18.42 
 O(Fragment=2)         13.04     22.55     19.52 
 H(Fragment=2)         12.78     22.28     20.4 
 H(Fragment=2)         12.74     23.46     19.46 
 O(Fragment=2)         12.91     21.14     16.87 
 H(Fragment=2)         12.99     20.42     17.49 
 H(Fragment=2)         12.79     21.91     17.42 
 O(Fragment=2)         26.88     16.89     20.21 
 H(Fragment=2)         26.42     16.28     20.78 
 H(Fragment=2)         27.31     16.34     19.55 
 O(Fragment=2)         13.84     25.18     22. 
 H(Fragment=2)         13.88     25.04     22.95 
 H(Fragment=2)         14.75     25.09     21.71 
 O(Fragment=2)         25.58     24.52     15.46 
 H(Fragment=2)         25.28     24.64     14.56 
 H(Fragment=2)         24.9      23.99     15.87 
 O(Fragment=2)         16.8      26.42     15.72 
 H(Fragment=2)         16.93     26.82     14.86 
 H(Fragment=2)         17.25     25.58     15.67 
 O(Fragment=2)         19.29     23.85     27.15 
 H(Fragment=2)         19.61     24.21     26.32 
 H(Fragment=2)         19.98     24.07     27.78 
 O(Fragment=2)         24.78     13.96     19.19 
 H(Fragment=2)         23.98     13.48     19.4 
 H(Fragment=2)         25.41     13.28     18.96 
 O(Fragment=2)         20.43     12.82     22.65 
 H(Fragment=2)         20.65     12.93     23.58 
 H(Fragment=2)         20.31     11.87     22.54 
 O(Fragment=2)         14.5      25.68     17.11 
 H(Fragment=2)         14.75     24.76     17.03 
 H(Fragment=2)         15.24     26.16     16.74 
 O(Fragment=2)         12.42     21.7      22.24 
 H(Fragment=2)         13.07     21.66     22.93 
 H(Fragment=2)         12.18     20.79     22.08 
 O(Fragment=2)         21.88     14.17     25.06 
 H(Fragment=2)         21.68     14.93     25.6 
 H(Fragment=2)         21.73     13.42     25.63 
 O(Fragment=2)         21.97     13.6      14.68 
 H(Fragment=2)         21.43     13.67     13.89 
 H(Fragment=2)         22.1      14.5      14.96 
 O(Fragment=2)         26.32     25.55     22.72 
 H(Fragment=2)         25.66     24.95     22.38 
 H(Fragment=2)         26.85     25.78     21.96 
 O(Fragment=2)         14.87     13.97     22.41 
 H(Fragment=2)         15.7      14.05     22.89 
 H(Fragment=2)         14.41     13.26     22.86 
 O(Fragment=2)         21.68     22.26     11.75 
 H(Fragment=2)         22.       21.87     12.56 
 H(Fragment=2)         21.91     21.62     11.07 
 O(Fragment=2)         20.11     27.93     19.77 
 H(Fragment=2)         19.51     27.87     19.02 
 H(Fragment=2)         20.36     28.86     19.8 
 O(Fragment=2)         25.71     19.71     25.53 
 H(Fragment=2)         25.83     19.68     26.48 
 H(Fragment=2)         25.93     18.83     25.24 
 O(Fragment=2)         24.96     14.68     24.98 
 H(Fragment=2)         24.89     13.73     24.92 
 H(Fragment=2)         24.58     14.99     24.16 
 O(Fragment=2)         27.8      18.54     22.58 
 H(Fragment=2)         27.65     18.24     21.68 
 H(Fragment=2)         28.24     19.39     22.48 
 O(Fragment=2)         23.72     27.33     21.35 
 H(Fragment=2)         23.7      27.6      20.43 
 H(Fragment=2)         24.37     26.64     21.39 
 O(Fragment=2)         15.32     12.79     19.06 
 H(Fragment=2)         15.4      13.37     19.82 
 H(Fragment=2)         14.82     13.3      18.42 
 O(Fragment=2)         18.14     28.01     17.77 
 H(Fragment=2)         17.84     28.79     17.31 
 H(Fragment=2)         17.76     27.28     17.29 
 O(Fragment=2)         17.84     26.       25. 
 H(Fragment=2)         17.38     26.32     25.78 
 H(Fragment=2)         18.61     26.56     24.93 
 O(Fragment=2)         21.16     25.34     13.94 
 H(Fragment=2)         20.53     24.81     13.45 
 H(Fragment=2)         21.99     25.24     13.46 
 O(Fragment=2)         15.96     27.19     23. 
 H(Fragment=2)         16.09     26.37     23.48 
 H(Fragment=2)         15.62     26.91     22.15 
 O(Fragment=2)         17.4      18.13     11.6 
 H(Fragment=2)         18.04     17.89     12.27 
 H(Fragment=2)         16.61     18.34     12.08 
 O(Fragment=2)         20.81     11.47     18.36 
 H(Fragment=2)         20.03     11.82     18.79 
 H(Fragment=2)         20.63     11.54     17.43 
 O(Fragment=2)         25.68     15.45     14.64 
 H(Fragment=2)         25.58     16.27     15.11 
 H(Fragment=2)         25.2      15.57     13.82 
 O(Fragment=2)         16.79     11.43     21.49 
 H(Fragment=2)         17.13     12.32     21.43 
 H(Fragment=2)         17.2      10.96     20.77 
 O(Fragment=2)         18.28     14.24     13.11 
 H(Fragment=2)         17.98     14.72     13.89 
 H(Fragment=2)         17.49     14.01     12.64 
 O(Fragment=2)         23.79     25.12     26.22 
 H(Fragment=2)         23.2      25.75     25.8 
 H(Fragment=2)         24.23     24.68     25.49 
 O(Fragment=2)         24.26     16.6      27.03 
 H(Fragment=2)         23.35     16.42     26.8 
 H(Fragment=2)         24.75     16.37     26.24 
 O(Fragment=2)         12.81     25.19     19.5 
 H(Fragment=2)         13.42     25.23     20.24 
 H(Fragment=2)         13.06     25.94     18.95 
 O(Fragment=2)         25.84     21.65     14.15 
 H(Fragment=2)         26.26     22.27     14.75 
 H(Fragment=2)         26.57     21.2      13.72 
 O(Fragment=2)         12.93     19.31     14.5 
 H(Fragment=2)         12.38     18.61     14.84 
 H(Fragment=2)         13.04     19.91     15.23 
 O(Fragment=2)         24.19     18.93     12.34 
 H(Fragment=2)         25.05     19.01     11.93 
 H(Fragment=2)         23.91     19.83     12.47 
 O(Fragment=2)         14.81     19.17     27.4 
 H(Fragment=2)         13.87     19.3      27.48 
 H(Fragment=2)         14.9      18.5      26.72 
 O(Fragment=2)         22.34     16.74     12.37 
 H(Fragment=2)         22.82     17.57     12.28 
 H(Fragment=2)         23.02     16.07     12.4 
 O(Fragment=2)         12.49     15.3      21.62 
 H(Fragment=2)         13.31     14.86     21.85 
 H(Fragment=2)         11.84     14.6      21.65 
 O(Fragment=2)         20.3      20.01     29.04 
 H(Fragment=2)         20.05     19.18     28.62 
 H(Fragment=2)         21.18     20.18     28.71 
 O(Fragment=2)         25.14     27.18     18.43 
 H(Fragment=2)         24.22     27.37     18.28 
 H(Fragment=2)         25.47     26.88     17.58 
 O(Fragment=2)         28.21     17.86     15.49 
 H(Fragment=2)         27.47     17.83     16.1 
 H(Fragment=2)         28.07     17.13     14.9 
 O(Fragment=2)         20.57     27.78     14.75 
 H(Fragment=2)         20.87     26.87     14.65 
 H(Fragment=2)         21.23     28.3      14.29 
 O(Fragment=2)         15.64     13.39     15.43 
 H(Fragment=2)         15.79     14.17     14.9 
 H(Fragment=2)         14.91     13.63     16.01 
 O(Fragment=2)         23.72     11.57     18.21 
 H(Fragment=2)         22.91     11.78     18.68 
 H(Fragment=2)         23.51     11.73     17.29 
 O(Fragment=2)         14.07     24.52     24.79 
 H(Fragment=2)         13.15     24.54     25.06 
 H(Fragment=2)         14.55     24.78     25.58 
 O(Fragment=2)         24.7      13.19     15.58 
 H(Fragment=2)         23.79     13.38     15.36 
 H(Fragment=2)         25.18     13.98     15.36 
 O(Fragment=2)         13.79     21.03     12.73 
 H(Fragment=2)         13.49     20.59     13.53 
 H(Fragment=2)         14.65     21.38     12.97 
 O(Fragment=2)         16.85     23.16     28.45 
 H(Fragment=2)         16.89     22.2      28.43 
 H(Fragment=2)         17.6      23.44     27.92 
 O(Fragment=2)         27.34     17.26     25.26 
 H(Fragment=2)         27.75     18.03     25.65 
 H(Fragment=2)         27.42     17.4      24.32 
 O(Fragment=2)         11.93     17.16     16.05 
 H(Fragment=2)         11.12     16.67     15.92 
 H(Fragment=2)         11.95     17.34     16.99 
 O(Fragment=2)         17.74     11.54     24.51 
 H(Fragment=2)         17.36     11.34     23.65 
 H(Fragment=2)         17.87     12.49     24.5 
 O(Fragment=2)         27.62     23.65     24.61 
 H(Fragment=2)         26.79     23.34     24.99 
 H(Fragment=2)         27.36     24.29     23.96 
 O(Fragment=2)         13.29     13.64     17.17 
 H(Fragment=2)         13.21     14.47     17.65 
 H(Fragment=2)         12.48     13.58     16.66 
 O(Fragment=2)         11.76     21.28     25.41 
 H(Fragment=2)         11.23     20.51     25.19 
 H(Fragment=2)         12.66     21.       25.25 
 O(Fragment=2)         22.04     28.77     23.09 
 H(Fragment=2)         22.68     28.29     22.57 
 H(Fragment=2)         21.53     29.27     22.45 
 O(Fragment=2)         16.39     16.21     28.06 
 H(Fragment=2)         15.74     15.86     28.66 
 H(Fragment=2)         16.       16.14     27.19 
 O(Fragment=2)         16.97     20.46     28.68 
 H(Fragment=2)         16.97     20.14     29.58 
 H(Fragment=2)         16.18     20.08     28.3 
 O(Fragment=2)         15.33     27.85     19.5 
 H(Fragment=2)         15.83     28.54     19.07 
 H(Fragment=2)         14.44     28.2      19.58 
 O(Fragment=2)         18.78     12.95     27.03 
 H(Fragment=2)         18.02     12.39     26.9 
 H(Fragment=2)         18.58     13.75     26.53 
 
 NAtoms=    385 NQM=      385 NQMF=       0 NMMI=      0 NMMIF=      0
                NMic=       0 NMicF=      0.
                    Isotopes and Nuclear Properties:
 (Nuclear quadrupole moments (NQMom) in fm**2, nuclear magnetic moments (NMagM)
  in nuclear magnetons)

  Atom         1           2           3           4           5           6           7           8           9          10
 IAtWgt=          79          16           1           1          16           1           1          16           1           1
 AtmWgt=  78.9183361  15.9949146   1.0078250   1.0078250  15.9949146   1.0078250   1.0078250  15.9949146   1.0078250   1.0078250
 NucSpn=           3           0           1           1           0           1           1           0           1           1
 AtZEff=   0.0000000   0.0000000   0.0000000   0.0000000   0.0000000   0.0000000   0.0000000   0.0000000   0.0000000   0.0000000
 NQMom=   31.3000000   0.0000000   0.0000000   0.0000000   0.0000000   0.0000000   0.0000000   0.0000000   0.0000000   0.0000000
 NMagM=    2.1063990   0.0000000   2.7928460   2.7928460   0.0000000   2.7928460   2.7928460   0.0000000   2.7928460   2.7928460
 AtZNuc=  35.0000000   8.0000000   1.0000000   1.0000000   8.0000000   1.0000000   1.0000000   8.0000000   1.0000000   1.0000000

  Atom        11          12          13          14          15          16          17          18          19          20
 IAtWgt=          16           1           1          16           1           1          16           1           1          16
 AtmWgt=  15.9949146   1.0078250   1.0078250  15.9949146   1.0078250   1.0078250  15.9949146   1.0078250   1.0078250  15.9949146
 NucSpn=           0           1           1           0           1           1           0           1           1           0
 AtZEff=   0.0000000   0.0000000   0.0000000   0.0000000   0.0000000   0.0000000   0.0000000   0.0000000   0.0000000   0.0000000
 NQMom=    0.0000000   0.0000000   0.0000000   0.0000000   0.0000000   0.0000000   0.0000000   0.0000000   0.0000000   0.0000000
 NMagM=    0.0000000   2.7928460   2.7928460   0.0000000   2.7928460   2.7928460   0.0000000   2.7928460   2.7928460   0.0000000
 AtZNuc=   8.0000000   1.0000000   1.0000000   8.0000000   1.0000000   1.0000000   8.0000000   1.0000000   1.0000000   8.0000000

  Atom        21          22          23          24          25          26          27          28          29          30
 IAtWgt=           1           1          16           1           1          16           1           1          16           1
 AtmWgt=   1.0078250   1.0078250  15.9949146   1.0078250   1.0078250  15.9949146   1.0078250   1.0078250  15.9949146   1.0078250
 NucSpn=           1           1           0           1           1           0           1           1           0           1
 AtZEff=   0.0000000   0.0000000   0.0000000   0.0000000   0.0000000   0.0000000   0.0000000   0.0000000   0.0000000   0.0000000
 NQMom=    0.0000000   0.0000000   0.0000000   0.0000000   0.0000000   0.0000000   0.0000000   0.0000000   0.0000000   0.0000000
 NMagM=    2.7928460   2.7928460   0.0000000   2.7928460   2.7928460   0.0000000   2.7928460   2.7928460   0.0000000   2.7928460
 AtZNuc=   1.0000000   1.0000000   8.0000000   1.0000000   1.0000000   8.0000000   1.0000000   1.0000000   8.0000000   1.0000000

  Atom        31          32          33          34          35          36          37          38          39          40
 IAtWgt=           1          16           1           1          16           1           1          16           1           1
 AtmWgt=   1.0078250  15.9949146   1.0078250   1.0078250  15.9949146   1.0078250   1.0078250  15.9949146   1.0078250   1.0078250
 NucSpn=           1           0           1           1           0           1           1           0           1           1
 AtZEff=   0.0000000   0.0000000   0.0000000   0.0000000   0.0000000   0.0000000   0.0000000   0.0000000   0.0000000   0.0000000
 NQMom=    0.0000000   0.0000000   0.0000000   0.0000000   0.0000000   0.0000000   0.0000000   0.0000000   0.0000000   0.0000000
 NMagM=    2.7928460   0.0000000   2.7928460   2.7928460   0.0000000   2.7928460   2.7928460   0.0000000   2.7928460   2.7928460
 AtZNuc=   1.0000000   8.0000000   1.0000000   1.0000000   8.0000000   1.0000000   1.0000000   8.0000000   1.0000000   1.0000000

  Atom        41          42          43          44          45          46          47          48          49          50
 IAtWgt=          16           1           1          16           1           1          16           1           1          16
 AtmWgt=  15.9949146   1.0078250   1.0078250  15.9949146   1.0078250   1.0078250  15.9949146   1.0078250   1.0078250  15.9949146
 NucSpn=           0           1           1           0           1           1           0           1           1           0
 AtZEff=   0.0000000   0.0000000   0.0000000   0.0000000   0.0000000   0.0000000   0.0000000   0.0000000   0.0000000   0.0000000
 NQMom=    0.0000000   0.0000000   0.0000000   0.0000000   0.0000000   0.0000000   0.0000000   0.0000000   0.0000000   0.0000000
 NMagM=    0.0000000   2.7928460   2.7928460   0.0000000   2.7928460   2.7928460   0.0000000   2.7928460   2.7928460   0.0000000
 AtZNuc=   8.0000000   1.0000000   1.0000000   8.0000000   1.0000000   1.0000000   8.0000000   1.0000000   1.0000000   8.0000000

  Atom        51          52          53          54          55          56          57          58          59          60
 IAtWgt=           1           1          16           1           1          16           1           1          16           1
 AtmWgt=   1.0078250   1.0078250  15.9949146   1.0078250   1.0078250  15.9949146   1.0078250   1.0078250  15.9949146   1.0078250
 NucSpn=           1           1           0           1           1           0           1           1           0           1
 AtZEff=   0.0000000   0.0000000   0.0000000   0.0000000   0.0000000   0.0000000   0.0000000   0.0000000   0.0000000   0.0000000
 NQMom=    0.0000000   0.0000000   0.0000000   0.0000000   0.0000000   0.0000000   0.0000000   0.0000000   0.0000000   0.0000000
 NMagM=    2.7928460   2.7928460   0.0000000   2.7928460   2.7928460   0.0000000   2.7928460   2.7928460   0.0000000   2.7928460
 AtZNuc=   1.0000000   1.0000000   8.0000000   1.0000000   1.0000000   8.0000000   1.0000000   1.0000000   8.0000000   1.0000000

  Atom        61          62          63          64          65          66          67          68          69          70
 IAtWgt=           1          16           1           1          16           1           1          16           1           1
 AtmWgt=   1.0078250  15.9949146   1.0078250   1.0078250  15.9949146   1.0078250   1.0078250  15.9949146   1.0078250   1.0078250
 NucSpn=           1           0           1           1           0           1           1           0           1           1
 AtZEff=   0.0000000   0.0000000   0.0000000   0.0000000   0.0000000   0.0000000   0.0000000   0.0000000   0.0000000   0.0000000
 NQMom=    0.0000000   0.0000000   0.0000000   0.0000000   0.0000000   0.0000000   0.0000000   0.0000000   0.0000000   0.0000000
 NMagM=    2.7928460   0.0000000   2.7928460   2.7928460   0.0000000   2.7928460   2.7928460   0.0000000   2.7928460   2.7928460
 AtZNuc=   1.0000000   8.0000000   1.0000000   1.0000000   8.0000000   1.0000000   1.0000000   8.0000000   1.0000000   1.0000000

  Atom        71          72          73          74          75          76          77          78          79          80
 IAtWgt=          16           1           1          16           1           1          16           1           1          16
 AtmWgt=  15.9949146   1.0078250   1.0078250  15.9949146   1.0078250   1.0078250  15.9949146   1.0078250   1.0078250  15.9949146
 NucSpn=           0           1           1           0           1           1           0           1           1           0
 AtZEff=   0.0000000   0.0000000   0.0000000   0.0000000   0.0000000   0.0000000   0.0000000   0.0000000   0.0000000   0.0000000
 NQMom=    0.0000000   0.0000000   0.0000000   0.0000000   0.0000000   0.0000000   0.0000000   0.0000000   0.0000000   0.0000000
 NMagM=    0.0000000   2.7928460   2.7928460   0.0000000   2.7928460   2.7928460   0.0000000   2.7928460   2.7928460   0.0000000
 AtZNuc=   8.0000000   1.0000000   1.0000000   8.0000000   1.0000000   1.0000000   8.0000000   1.0000000   1.0000000   8.0000000

  Atom        81          82          83          84          85          86          87          88          89          90
 IAtWgt=           1           1          16           1           1          16           1           1          16           1
 AtmWgt=   1.0078250   1.0078250  15.9949146   1.0078250   1.0078250  15.9949146   1.0078250   1.0078250  15.9949146   1.0078250
 NucSpn=           1           1           0           1           1           0           1           1           0           1
 AtZEff=   0.0000000   0.0000000   0.0000000   0.0000000   0.0000000   0.0000000   0.0000000   0.0000000   0.0000000   0.0000000
 NQMom=    0.0000000   0.0000000   0.0000000   0.0000000   0.0000000   0.0000000   0.0000000   0.0000000   0.0000000   0.0000000
 NMagM=    2.7928460   2.7928460   0.0000000   2.7928460   2.7928460   0.0000000   2.7928460   2.7928460   0.0000000   2.7928460
 AtZNuc=   1.0000000   1.0000000   8.0000000   1.0000000   1.0000000   8.0000000   1.0000000   1.0000000   8.0000000   1.0000000

  Atom        91          92          93          94          95          96          97          98          99         100
 IAtWgt=           1          16           1           1          16           1           1          16           1           1
 AtmWgt=   1.0078250  15.9949146   1.0078250   1.0078250  15.9949146   1.0078250   1.0078250  15.9949146   1.0078250   1.0078250
 NucSpn=           1           0           1           1           0           1           1           0           1           1
 AtZEff=   0.0000000   0.0000000   0.0000000   0.0000000   0.0000000   0.0000000   0.0000000   0.0000000   0.0000000   0.0000000
 NQMom=    0.0000000   0.0000000   0.0000000   0.0000000   0.0000000   0.0000000   0.0000000   0.0000000   0.0000000   0.0000000
 NMagM=    2.7928460   0.0000000   2.7928460   2.7928460   0.0000000   2.7928460   2.7928460   0.0000000   2.7928460   2.7928460
 AtZNuc=   1.0000000   8.0000000   1.0000000   1.0000000   8.0000000   1.0000000   1.0000000   8.0000000   1.0000000   1.0000000

  Atom       101         102         103         104         105         106         107         108         109         110
 IAtWgt=          16           1           1          16           1           1          16           1           1          16
 AtmWgt=  15.9949146   1.0078250   1.0078250  15.9949146   1.0078250   1.0078250  15.9949146   1.0078250   1.0078250  15.9949146
 NucSpn=           0           1           1           0           1           1           0           1           1           0
 AtZEff=   0.0000000   0.0000000   0.0000000   0.0000000   0.0000000   0.0000000   0.0000000   0.0000000   0.0000000   0.0000000
 NQMom=    0.0000000   0.0000000   0.0000000   0.0000000   0.0000000   0.0000000   0.0000000   0.0000000   0.0000000   0.0000000
 NMagM=    0.0000000   2.7928460   2.7928460   0.0000000   2.7928460   2.7928460   0.0000000   2.7928460   2.7928460   0.0000000
 AtZNuc=   8.0000000   1.0000000   1.0000000   8.0000000   1.0000000   1.0000000   8.0000000   1.0000000   1.0000000   8.0000000

  Atom       111         112         113         114         115         116         117         118         119         120
 IAtWgt=           1           1          16           1           1          16           1           1          16           1
 AtmWgt=   1.0078250   1.0078250  15.9949146   1.0078250   1.0078250  15.9949146   1.0078250   1.0078250  15.9949146   1.0078250
 NucSpn=           1           1           0           1           1           0           1           1           0           1
 AtZEff=   0.0000000   0.0000000   0.0000000   0.0000000   0.0000000   0.0000000   0.0000000   0.0000000   0.0000000   0.0000000
 NQMom=    0.0000000   0.0000000   0.0000000   0.0000000   0.0000000   0.0000000   0.0000000   0.0000000   0.0000000   0.0000000
 NMagM=    2.7928460   2.7928460   0.0000000   2.7928460   2.7928460   0.0000000   2.7928460   2.7928460   0.0000000   2.7928460
 AtZNuc=   1.0000000   1.0000000   8.0000000   1.0000000   1.0000000   8.0000000   1.0000000   1.0000000   8.0000000   1.0000000

  Atom       121         122         123         124         125         126         127         128         129         130
 IAtWgt=           1          16           1           1          16           1           1          16           1           1
 AtmWgt=   1.0078250  15.9949146   1.0078250   1.0078250  15.9949146   1.0078250   1.0078250  15.9949146   1.0078250   1.0078250
 NucSpn=           1           0           1           1           0           1           1           0           1           1
 AtZEff=   0.0000000   0.0000000   0.0000000   0.0000000   0.0000000   0.0000000   0.0000000   0.0000000   0.0000000   0.0000000
 NQMom=    0.0000000   0.0000000   0.0000000   0.0000000   0.0000000   0.0000000   0.0000000   0.0000000   0.0000000   0.0000000
 NMagM=    2.7928460   0.0000000   2.7928460   2.7928460   0.0000000   2.7928460   2.7928460   0.0000000   2.7928460   2.7928460
 AtZNuc=   1.0000000   8.0000000   1.0000000   1.0000000   8.0000000   1.0000000   1.0000000   8.0000000   1.0000000   1.0000000

  Atom       131         132         133         134         135         136         137         138         139         140
 IAtWgt=          16           1           1          16           1           1          16           1           1          16
 AtmWgt=  15.9949146   1.0078250   1.0078250  15.9949146   1.0078250   1.0078250  15.9949146   1.0078250   1.0078250  15.9949146
 NucSpn=           0           1           1           0           1           1           0           1           1           0
 AtZEff=   0.0000000   0.0000000   0.0000000   0.0000000   0.0000000   0.0000000   0.0000000   0.0000000   0.0000000   0.0000000
 NQMom=    0.0000000   0.0000000   0.0000000   0.0000000   0.0000000   0.0000000   0.0000000   0.0000000   0.0000000   0.0000000
 NMagM=    0.0000000   2.7928460   2.7928460   0.0000000   2.7928460   2.7928460   0.0000000   2.7928460   2.7928460   0.0000000
 AtZNuc=   8.0000000   1.0000000   1.0000000   8.0000000   1.0000000   1.0000000   8.0000000   1.0000000   1.0000000   8.0000000

  Atom       141         142         143         144         145         146         147         148         149         150
 IAtWgt=           1           1          16           1           1          16           1           1          16           1
 AtmWgt=   1.0078250   1.0078250  15.9949146   1.0078250   1.0078250  15.9949146   1.0078250   1.0078250  15.9949146   1.0078250
 NucSpn=           1           1           0           1           1           0           1           1           0           1
 AtZEff=   0.0000000   0.0000000   0.0000000   0.0000000   0.0000000   0.0000000   0.0000000   0.0000000   0.0000000   0.0000000
 NQMom=    0.0000000   0.0000000   0.0000000   0.0000000   0.0000000   0.0000000   0.0000000   0.0000000   0.0000000   0.0000000
 NMagM=    2.7928460   2.7928460   0.0000000   2.7928460   2.7928460   0.0000000   2.7928460   2.7928460   0.0000000   2.7928460
 AtZNuc=   1.0000000   1.0000000   8.0000000   1.0000000   1.0000000   8.0000000   1.0000000   1.0000000   8.0000000   1.0000000

  Atom       151         152         153         154         155         156         157         158         159         160
 IAtWgt=           1          16           1           1          16           1           1          16           1           1
 AtmWgt=   1.0078250  15.9949146   1.0078250   1.0078250  15.9949146   1.0078250   1.0078250  15.9949146   1.0078250   1.0078250
 NucSpn=           1           0           1           1           0           1           1           0           1           1
 AtZEff=   0.0000000   0.0000000   0.0000000   0.0000000   0.0000000   0.0000000   0.0000000   0.0000000   0.0000000   0.0000000
 NQMom=    0.0000000   0.0000000   0.0000000   0.0000000   0.0000000   0.0000000   0.0000000   0.0000000   0.0000000   0.0000000
 NMagM=    2.7928460   0.0000000   2.7928460   2.7928460   0.0000000   2.7928460   2.7928460   0.0000000   2.7928460   2.7928460
 AtZNuc=   1.0000000   8.0000000   1.0000000   1.0000000   8.0000000   1.0000000   1.0000000   8.0000000   1.0000000   1.0000000

  Atom       161         162         163         164         165         166         167         168         169         170
 IAtWgt=          16           1           1          16           1           1          16           1           1          16
 AtmWgt=  15.9949146   1.0078250   1.0078250  15.9949146   1.0078250   1.0078250  15.9949146   1.0078250   1.0078250  15.9949146
 NucSpn=           0           1           1           0           1           1           0           1           1           0
 AtZEff=   0.0000000   0.0000000   0.0000000   0.0000000   0.0000000   0.0000000   0.0000000   0.0000000   0.0000000   0.0000000
 NQMom=    0.0000000   0.0000000   0.0000000   0.0000000   0.0000000   0.0000000   0.0000000   0.0000000   0.0000000   0.0000000
 NMagM=    0.0000000   2.7928460   2.7928460   0.0000000   2.7928460   2.7928460   0.0000000   2.7928460   2.7928460   0.0000000
 AtZNuc=   8.0000000   1.0000000   1.0000000   8.0000000   1.0000000   1.0000000   8.0000000   1.0000000   1.0000000   8.0000000

  Atom       171         172         173         174         175         176         177         178         179         180
 IAtWgt=           1           1          16           1           1          16           1           1          16           1
 AtmWgt=   1.0078250   1.0078250  15.9949146   1.0078250   1.0078250  15.9949146   1.0078250   1.0078250  15.9949146   1.0078250
 NucSpn=           1           1           0           1           1           0           1           1           0           1
 AtZEff=   0.0000000   0.0000000   0.0000000   0.0000000   0.0000000   0.0000000   0.0000000   0.0000000   0.0000000   0.0000000
 NQMom=    0.0000000   0.0000000   0.0000000   0.0000000   0.0000000   0.0000000   0.0000000   0.0000000   0.0000000   0.0000000
 NMagM=    2.7928460   2.7928460   0.0000000   2.7928460   2.7928460   0.0000000   2.7928460   2.7928460   0.0000000   2.7928460
 AtZNuc=   1.0000000   1.0000000   8.0000000   1.0000000   1.0000000   8.0000000   1.0000000   1.0000000   8.0000000   1.0000000

  Atom       181         182         183         184         185         186         187         188         189         190
 IAtWgt=           1          16           1           1          16           1           1          16           1           1
 AtmWgt=   1.0078250  15.9949146   1.0078250   1.0078250  15.9949146   1.0078250   1.0078250  15.9949146   1.0078250   1.0078250
 NucSpn=           1           0           1           1           0           1           1           0           1           1
 AtZEff=   0.0000000   0.0000000   0.0000000   0.0000000   0.0000000   0.0000000   0.0000000   0.0000000   0.0000000   0.0000000
 NQMom=    0.0000000   0.0000000   0.0000000   0.0000000   0.0000000   0.0000000   0.0000000   0.0000000   0.0000000   0.0000000
 NMagM=    2.7928460   0.0000000   2.7928460   2.7928460   0.0000000   2.7928460   2.7928460   0.0000000   2.7928460   2.7928460
 AtZNuc=   1.0000000   8.0000000   1.0000000   1.0000000   8.0000000   1.0000000   1.0000000   8.0000000   1.0000000   1.0000000

  Atom       191         192         193         194         195         196         197         198         199         200
 IAtWgt=          16           1           1          16           1           1          16           1           1          16
 AtmWgt=  15.9949146   1.0078250   1.0078250  15.9949146   1.0078250   1.0078250  15.9949146   1.0078250   1.0078250  15.9949146
 NucSpn=           0           1           1           0           1           1           0           1           1           0
 AtZEff=   0.0000000   0.0000000   0.0000000   0.0000000   0.0000000   0.0000000   0.0000000   0.0000000   0.0000000   0.0000000
 NQMom=    0.0000000   0.0000000   0.0000000   0.0000000   0.0000000   0.0000000   0.0000000   0.0000000   0.0000000   0.0000000
 NMagM=    0.0000000   2.7928460   2.7928460   0.0000000   2.7928460   2.7928460   0.0000000   2.7928460   2.7928460   0.0000000
 AtZNuc=   8.0000000   1.0000000   1.0000000   8.0000000   1.0000000   1.0000000   8.0000000   1.0000000   1.0000000   8.0000000

  Atom       201         202         203         204         205         206         207         208         209         210
 IAtWgt=           1           1          16           1           1          16           1           1          16           1
 AtmWgt=   1.0078250   1.0078250  15.9949146   1.0078250   1.0078250  15.9949146   1.0078250   1.0078250  15.9949146   1.0078250
 NucSpn=           1           1           0           1           1           0           1           1           0           1
 AtZEff=   0.0000000   0.0000000   0.0000000   0.0000000   0.0000000   0.0000000   0.0000000   0.0000000   0.0000000   0.0000000
 NQMom=    0.0000000   0.0000000   0.0000000   0.0000000   0.0000000   0.0000000   0.0000000   0.0000000   0.0000000   0.0000000
 NMagM=    2.7928460   2.7928460   0.0000000   2.7928460   2.7928460   0.0000000   2.7928460   2.7928460   0.0000000   2.7928460
 AtZNuc=   1.0000000   1.0000000   8.0000000   1.0000000   1.0000000   8.0000000   1.0000000   1.0000000   8.0000000   1.0000000

  Atom       211         212         213         214         215         216         217         218         219         220
 IAtWgt=           1          16           1           1          16           1           1          16           1           1
 AtmWgt=   1.0078250  15.9949146   1.0078250   1.0078250  15.9949146   1.0078250   1.0078250  15.9949146   1.0078250   1.0078250
 NucSpn=           1           0           1           1           0           1           1           0           1           1
 AtZEff=   0.0000000   0.0000000   0.0000000   0.0000000   0.0000000   0.0000000   0.0000000   0.0000000   0.0000000   0.0000000
 NQMom=    0.0000000   0.0000000   0.0000000   0.0000000   0.0000000   0.0000000   0.0000000   0.0000000   0.0000000   0.0000000
 NMagM=    2.7928460   0.0000000   2.7928460   2.7928460   0.0000000   2.7928460   2.7928460   0.0000000   2.7928460   2.7928460
 AtZNuc=   1.0000000   8.0000000   1.0000000   1.0000000   8.0000000   1.0000000   1.0000000   8.0000000   1.0000000   1.0000000

  Atom       221         222         223         224         225         226         227         228         229         230
 IAtWgt=          16           1           1          16           1           1          16           1           1          16
 AtmWgt=  15.9949146   1.0078250   1.0078250  15.9949146   1.0078250   1.0078250  15.9949146   1.0078250   1.0078250  15.9949146
 NucSpn=           0           1           1           0           1           1           0           1           1           0
 AtZEff=   0.0000000   0.0000000   0.0000000   0.0000000   0.0000000   0.0000000   0.0000000   0.0000000   0.0000000   0.0000000
 NQMom=    0.0000000   0.0000000   0.0000000   0.0000000   0.0000000   0.0000000   0.0000000   0.0000000   0.0000000   0.0000000
 NMagM=    0.0000000   2.7928460   2.7928460   0.0000000   2.7928460   2.7928460   0.0000000   2.7928460   2.7928460   0.0000000
 AtZNuc=   8.0000000   1.0000000   1.0000000   8.0000000   1.0000000   1.0000000   8.0000000   1.0000000   1.0000000   8.0000000

  Atom       231         232         233         234         235         236         237         238         239         240
 IAtWgt=           1           1          16           1           1          16           1           1          16           1
 AtmWgt=   1.0078250   1.0078250  15.9949146   1.0078250   1.0078250  15.9949146   1.0078250   1.0078250  15.9949146   1.0078250
 NucSpn=           1           1           0           1           1           0           1           1           0           1
 AtZEff=   0.0000000   0.0000000   0.0000000   0.0000000   0.0000000   0.0000000   0.0000000   0.0000000   0.0000000   0.0000000
 NQMom=    0.0000000   0.0000000   0.0000000   0.0000000   0.0000000   0.0000000   0.0000000   0.0000000   0.0000000   0.0000000
 NMagM=    2.7928460   2.7928460   0.0000000   2.7928460   2.7928460   0.0000000   2.7928460   2.7928460   0.0000000   2.7928460
 AtZNuc=   1.0000000   1.0000000   8.0000000   1.0000000   1.0000000   8.0000000   1.0000000   1.0000000   8.0000000   1.0000000

  Atom       241         242         243         244         245         246         247         248         249         250
 IAtWgt=           1          16           1           1          16           1           1          16           1           1
 AtmWgt=   1.0078250  15.9949146   1.0078250   1.0078250  15.9949146   1.0078250   1.0078250  15.9949146   1.0078250   1.0078250
 NucSpn=           1           0           1           1           0           1           1           0           1           1
 AtZEff=   0.0000000   0.0000000   0.0000000   0.0000000   0.0000000   0.0000000   0.0000000   0.0000000   0.0000000   0.0000000
 NQMom=    0.0000000   0.0000000   0.0000000   0.0000000   0.0000000   0.0000000   0.0000000   0.0000000   0.0000000   0.0000000
 NMagM=    2.7928460   0.0000000   2.7928460   2.7928460   0.0000000   2.7928460   2.7928460   0.0000000   2.7928460   2.7928460
 AtZNuc=   1.0000000   8.0000000   1.0000000   1.0000000   8.0000000   1.0000000   1.0000000   8.0000000   1.0000000   1.0000000

  Atom       251         252         253         254         255         256         257         258         259         260
 IAtWgt=          16           1           1          16           1           1          16           1           1          16
 AtmWgt=  15.9949146   1.0078250   1.0078250  15.9949146   1.0078250   1.0078250  15.9949146   1.0078250   1.0078250  15.9949146
 NucSpn=           0           1           1           0           1           1           0           1           1           0
 AtZEff=   0.0000000   0.0000000   0.0000000   0.0000000   0.0000000   0.0000000   0.0000000   0.0000000   0.0000000   0.0000000
 NQMom=    0.0000000   0.0000000   0.0000000   0.0000000   0.0000000   0.0000000   0.0000000   0.0000000   0.0000000   0.0000000
 NMagM=    0.0000000   2.7928460   2.7928460   0.0000000   2.7928460   2.7928460   0.0000000   2.7928460   2.7928460   0.0000000
 AtZNuc=   8.0000000   1.0000000   1.0000000   8.0000000   1.0000000   1.0000000   8.0000000   1.0000000   1.0000000   8.0000000

  Atom       261         262         263         264         265         266         267         268         269         270
 IAtWgt=           1           1          16           1           1          16           1           1          16           1
 AtmWgt=   1.0078250   1.0078250  15.9949146   1.0078250   1.0078250  15.9949146   1.0078250   1.0078250  15.9949146   1.0078250
 NucSpn=           1           1           0           1           1           0           1           1           0           1
 AtZEff=   0.0000000   0.0000000   0.0000000   0.0000000   0.0000000   0.0000000   0.0000000   0.0000000   0.0000000   0.0000000
 NQMom=    0.0000000   0.0000000   0.0000000   0.0000000   0.0000000   0.0000000   0.0000000   0.0000000   0.0000000   0.0000000
 NMagM=    2.7928460   2.7928460   0.0000000   2.7928460   2.7928460   0.0000000   2.7928460   2.7928460   0.0000000   2.7928460
 AtZNuc=   1.0000000   1.0000000   8.0000000   1.0000000   1.0000000   8.0000000   1.0000000   1.0000000   8.0000000   1.0000000

  Atom       271         272         273         274         275         276         277         278         279         280
 IAtWgt=           1          16           1           1          16           1           1          16           1           1
 AtmWgt=   1.0078250  15.9949146   1.0078250   1.0078250  15.9949146   1.0078250   1.0078250  15.9949146   1.0078250   1.0078250
 NucSpn=           1           0           1           1           0           1           1           0           1           1
 AtZEff=   0.0000000   0.0000000   0.0000000   0.0000000   0.0000000   0.0000000   0.0000000   0.0000000   0.0000000   0.0000000
 NQMom=    0.0000000   0.0000000   0.0000000   0.0000000   0.0000000   0.0000000   0.0000000   0.0000000   0.0000000   0.0000000
 NMagM=    2.7928460   0.0000000   2.7928460   2.7928460   0.0000000   2.7928460   2.7928460   0.0000000   2.7928460   2.7928460
 AtZNuc=   1.0000000   8.0000000   1.0000000   1.0000000   8.0000000   1.0000000   1.0000000   8.0000000   1.0000000   1.0000000

  Atom       281         282         283         284         285         286         287         288         289         290
 IAtWgt=          16           1           1          16           1           1          16           1           1          16
 AtmWgt=  15.9949146   1.0078250   1.0078250  15.9949146   1.0078250   1.0078250  15.9949146   1.0078250   1.0078250  15.9949146
 NucSpn=           0           1           1           0           1           1           0           1           1           0
 AtZEff=   0.0000000   0.0000000   0.0000000   0.0000000   0.0000000   0.0000000   0.0000000   0.0000000   0.0000000   0.0000000
 NQMom=    0.0000000   0.0000000   0.0000000   0.0000000   0.0000000   0.0000000   0.0000000   0.0000000   0.0000000   0.0000000
 NMagM=    0.0000000   2.7928460   2.7928460   0.0000000   2.7928460   2.7928460   0.0000000   2.7928460   2.7928460   0.0000000
 AtZNuc=   8.0000000   1.0000000   1.0000000   8.0000000   1.0000000   1.0000000   8.0000000   1.0000000   1.0000000   8.0000000

  Atom       291         292         293         294         295         296         297         298         299         300
 IAtWgt=           1           1          16           1           1          16           1           1          16           1
 AtmWgt=   1.0078250   1.0078250  15.9949146   1.0078250   1.0078250  15.9949146   1.0078250   1.0078250  15.9949146   1.0078250
 NucSpn=           1           1           0           1           1           0           1           1           0           1
 AtZEff=   0.0000000   0.0000000   0.0000000   0.0000000   0.0000000   0.0000000   0.0000000   0.0000000   0.0000000   0.0000000
 NQMom=    0.0000000   0.0000000   0.0000000   0.0000000   0.0000000   0.0000000   0.0000000   0.0000000   0.0000000   0.0000000
 NMagM=    2.7928460   2.7928460   0.0000000   2.7928460   2.7928460   0.0000000   2.7928460   2.7928460   0.0000000   2.7928460
 AtZNuc=   1.0000000   1.0000000   8.0000000   1.0000000   1.0000000   8.0000000   1.0000000   1.0000000   8.0000000   1.0000000

  Atom       301         302         303         304         305         306         307         308         309         310
 IAtWgt=           1          16           1           1          16           1           1          16           1           1
 AtmWgt=   1.0078250  15.9949146   1.0078250   1.0078250  15.9949146   1.0078250   1.0078250  15.9949146   1.0078250   1.0078250
 NucSpn=           1           0           1           1           0           1           1           0           1           1
 AtZEff=   0.0000000   0.0000000   0.0000000   0.0000000   0.0000000   0.0000000   0.0000000   0.0000000   0.0000000   0.0000000
 NQMom=    0.0000000   0.0000000   0.0000000   0.0000000   0.0000000   0.0000000   0.0000000   0.0000000   0.0000000   0.0000000
 NMagM=    2.7928460   0.0000000   2.7928460   2.7928460   0.0000000   2.7928460   2.7928460   0.0000000   2.7928460   2.7928460
 AtZNuc=   1.0000000   8.0000000   1.0000000   1.0000000   8.0000000   1.0000000   1.0000000   8.0000000   1.0000000   1.0000000

  Atom       311         312         313         314         315         316         317         318         319         320
 IAtWgt=          16           1           1          16           1           1          16           1           1          16
 AtmWgt=  15.9949146   1.0078250   1.0078250  15.9949146   1.0078250   1.0078250  15.9949146   1.0078250   1.0078250  15.9949146
 NucSpn=           0           1           1           0           1           1           0           1           1           0
 AtZEff=   0.0000000   0.0000000   0.0000000   0.0000000   0.0000000   0.0000000   0.0000000   0.0000000   0.0000000   0.0000000
 NQMom=    0.0000000   0.0000000   0.0000000   0.0000000   0.0000000   0.0000000   0.0000000   0.0000000   0.0000000   0.0000000
 NMagM=    0.0000000   2.7928460   2.7928460   0.0000000   2.7928460   2.7928460   0.0000000   2.7928460   2.7928460   0.0000000
 AtZNuc=   8.0000000   1.0000000   1.0000000   8.0000000   1.0000000   1.0000000   8.0000000   1.0000000   1.0000000   8.0000000

  Atom       321         322         323         324         325         326         327         328         329         330
 IAtWgt=           1           1          16           1           1          16           1           1          16           1
 AtmWgt=   1.0078250   1.0078250  15.9949146   1.0078250   1.0078250  15.9949146   1.0078250   1.0078250  15.9949146   1.0078250
 NucSpn=           1           1           0           1           1           0           1           1           0           1
 AtZEff=   0.0000000   0.0000000   0.0000000   0.0000000   0.0000000   0.0000000   0.0000000   0.0000000   0.0000000   0.0000000
 NQMom=    0.0000000   0.0000000   0.0000000   0.0000000   0.0000000   0.0000000   0.0000000   0.0000000   0.0000000   0.0000000
 NMagM=    2.7928460   2.7928460   0.0000000   2.7928460   2.7928460   0.0000000   2.7928460   2.7928460   0.0000000   2.7928460
 AtZNuc=   1.0000000   1.0000000   8.0000000   1.0000000   1.0000000   8.0000000   1.0000000   1.0000000   8.0000000   1.0000000

  Atom       331         332         333         334         335         336         337         338         339         340
 IAtWgt=           1          16           1           1          16           1           1          16           1           1
 AtmWgt=   1.0078250  15.9949146   1.0078250   1.0078250  15.9949146   1.0078250   1.0078250  15.9949146   1.0078250   1.0078250
 NucSpn=           1           0           1           1           0           1           1           0           1           1
 AtZEff=   0.0000000   0.0000000   0.0000000   0.0000000   0.0000000   0.0000000   0.0000000   0.0000000   0.0000000   0.0000000
 NQMom=    0.0000000   0.0000000   0.0000000   0.0000000   0.0000000   0.0000000   0.0000000   0.0000000   0.0000000   0.0000000
 NMagM=    2.7928460   0.0000000   2.7928460   2.7928460   0.0000000   2.7928460   2.7928460   0.0000000   2.7928460   2.7928460
 AtZNuc=   1.0000000   8.0000000   1.0000000   1.0000000   8.0000000   1.0000000   1.0000000   8.0000000   1.0000000   1.0000000

  Atom       341         342         343         344         345         346         347         348         349         350
 IAtWgt=          16           1           1          16           1           1          16           1           1          16
 AtmWgt=  15.9949146   1.0078250   1.0078250  15.9949146   1.0078250   1.0078250  15.9949146   1.0078250   1.0078250  15.9949146
 NucSpn=           0           1           1           0           1           1           0           1           1           0
 AtZEff=   0.0000000   0.0000000   0.0000000   0.0000000   0.0000000   0.0000000   0.0000000   0.0000000   0.0000000   0.0000000
 NQMom=    0.0000000   0.0000000   0.0000000   0.0000000   0.0000000   0.0000000   0.0000000   0.0000000   0.0000000   0.0000000
 NMagM=    0.0000000   2.7928460   2.7928460   0.0000000   2.7928460   2.7928460   0.0000000   2.7928460   2.7928460   0.0000000
 AtZNuc=   8.0000000   1.0000000   1.0000000   8.0000000   1.0000000   1.0000000   8.0000000   1.0000000   1.0000000   8.0000000

  Atom       351         352         353         354         355         356         357         358         359         360
 IAtWgt=           1           1          16           1           1          16           1           1          16           1
 AtmWgt=   1.0078250   1.0078250  15.9949146   1.0078250   1.0078250  15.9949146   1.0078250   1.0078250  15.9949146   1.0078250
 NucSpn=           1           1           0           1           1           0           1           1           0           1
 AtZEff=   0.0000000   0.0000000   0.0000000   0.0000000   0.0000000   0.0000000   0.0000000   0.0000000   0.0000000   0.0000000
 NQMom=    0.0000000   0.0000000   0.0000000   0.0000000   0.0000000   0.0000000   0.0000000   0.0000000   0.0000000   0.0000000
 NMagM=    2.7928460   2.7928460   0.0000000   2.7928460   2.7928460   0.0000000   2.7928460   2.7928460   0.0000000   2.7928460
 AtZNuc=   1.0000000   1.0000000   8.0000000   1.0000000   1.0000000   8.0000000   1.0000000   1.0000000   8.0000000   1.0000000

  Atom       361         362         363         364         365         366         367         368         369         370
 IAtWgt=           1          16           1           1          16           1           1          16           1           1
 AtmWgt=   1.0078250  15.9949146   1.0078250   1.0078250  15.9949146   1.0078250   1.0078250  15.9949146   1.0078250   1.0078250
 NucSpn=           1           0           1           1           0           1           1           0           1           1
 AtZEff=   0.0000000   0.0000000   0.0000000   0.0000000   0.0000000   0.0000000   0.0000000   0.0000000   0.0000000   0.0000000
 NQMom=    0.0000000   0.0000000   0.0000000   0.0000000   0.0000000   0.0000000   0.0000000   0.0000000   0.0000000   0.0000000
 NMagM=    2.7928460   0.0000000   2.7928460   2.7928460   0.0000000   2.7928460   2.7928460   0.0000000   2.7928460   2.7928460
 AtZNuc=   1.0000000   8.0000000   1.0000000   1.0000000   8.0000000   1.0000000   1.0000000   8.0000000   1.0000000   1.0000000

  Atom       371         372         373         374         375         376         377         378         379         380
 IAtWgt=          16           1           1          16           1           1          16           1           1          16
 AtmWgt=  15.9949146   1.0078250   1.0078250  15.9949146   1.0078250   1.0078250  15.9949146   1.0078250   1.0078250  15.9949146
 NucSpn=           0           1           1           0           1           1           0           1           1           0
 AtZEff=   0.0000000   0.0000000   0.0000000   0.0000000   0.0000000   0.0000000   0.0000000   0.0000000   0.0000000   0.0000000
 NQMom=    0.0000000   0.0000000   0.0000000   0.0000000   0.0000000   0.0000000   0.0000000   0.0000000   0.0000000   0.0000000
 NMagM=    0.0000000   2.7928460   2.7928460   0.0000000   2.7928460   2.7928460   0.0000000   2.7928460   2.7928460   0.0000000
 AtZNuc=   8.0000000   1.0000000   1.0000000   8.0000000   1.0000000   1.0000000   8.0000000   1.0000000   1.0000000   8.0000000

  Atom       381         382         383         384         385
 IAtWgt=           1           1          16           1           1
 AtmWgt=   1.0078250   1.0078250  15.9949146   1.0078250   1.0078250
 NucSpn=           1           1           0           1           1
 AtZEff=   0.0000000   0.0000000   0.0000000   0.0000000   0.0000000
 NQMom=    0.0000000   0.0000000   0.0000000   0.0000000   0.0000000
 NMagM=    2.7928460   2.7928460   0.0000000   2.7928460   2.7928460
 AtZNuc=   1.0000000   1.0000000   8.0000000   1.0000000   1.0000000
 Leave Link  101 at Fri May  4 06:58:05 2018, MaxMem= 14763950080 cpu:       253.6
 (Enter /cm/shared/gaussian/g09.e01/intel64-sandybridge/g09/l103.exe)

 GradGradGradGradGradGradGradGradGradGradGradGradGradGradGradGradGradGrad
 Berny optimization.
 Initialization pass.
 Trust Radius=3.00D-01 FncErr=1.00D-07 GrdErr=1.00D-07
 Number of steps in this run=      2 maximum allowed number of steps=      2.
 GradGradGradGradGradGradGradGradGradGradGradGradGradGradGradGradGradGrad

 Leave Link  103 at Fri May  4 06:58:05 2018, MaxMem= 14763950080 cpu:         3.7
 (Enter /cm/shared/gaussian/g09.e01/intel64-sandybridge/g09/l202.exe)
 Symmetry turned off by external request.
 Stoichiometry    BrH256O128(1-)
 Framework group  C1[X(BrH256O128)]
 Deg. of freedom  1149
 Full point group                 C1      NOp   1
                          Input orientation:                          
 ---------------------------------------------------------------------
 Center     Atomic      Atomic             Coordinates (Angstroms)
 Number     Number       Type             X           Y           Z
 ---------------------------------------------------------------------
      1         35           0       20.000000   20.000000   20.000000
      2          8           0       17.240000   20.220000   21.490000
      3          1           0       18.140000   20.170000   21.190000
      4          1           0       17.290000   20.680000   22.330000
      5          8           0       20.170000   17.870000   17.540000
      6          1           0       20.730000   18.230000   16.850000
      7          1           0       20.170000   18.530000   18.230000
      8          8           0       19.520000   23.150000   19.070000
      9          1           0       19.690000   22.320000   19.510000
     10          1           0       19.310000   23.760000   19.780000
     11          8           0       22.710000   21.240000   18.430000
     12          1           0       23.420000   20.820000   18.930000
     13          1           0       21.910000   21.000000   18.900000
     14          8           0       21.650000   18.940000   22.720000
     15          1           0       21.490000   18.000000   22.770000
     16          1           0       21.000000   19.250000   22.090000
     17          8           0       21.820000   17.110000   19.760000
     18          1           0       21.630000   18.000000   20.060000
     19          1           0       21.060000   16.890000   19.210000
     20          8           0       18.420000   20.330000   16.830000
     21          1           0       19.290000   20.720000   16.740000
     22          1           0       18.420000   19.940000   17.700000
     23          8           0       20.690000   21.400000   16.380000
     24          1           0       21.270000   21.180000   17.110000
     25          1           0       21.290000   21.500000   15.630000
     26          8           0       17.800000   16.510000   17.890000
     27          1           0       18.580000   17.050000   17.840000
     28          1           0       17.110000   17.100000   18.190000
     29          8           0       16.570000   22.640000   17.840000
     30          1           0       17.040000   21.980000   18.350000
     31          1           0       16.730000   23.460000   18.300000
     32          8           0       16.180000   18.040000   22.510000
     33          1           0       16.550000   18.890000   22.240000
     34          1           0       15.500000   18.270000   23.130000
     35          8           0       20.800000   23.830000   21.860000
     36          1           0       21.680000   23.640000   21.520000
     37          1           0       20.950000   24.450000   22.570000
     38          8           0       18.090000   16.520000   23.340000
     39          1           0       18.830000   16.730000   22.770000
     40          1           0       17.390000   17.110000   23.050000
     41          8           0       21.370000   24.430000   17.320000
     42          1           0       20.950000   24.030000   18.080000
     43          1           0       20.710000   24.400000   16.630000
     44          8           0       23.640000   16.780000   22.100000
     45          1           0       22.820000   16.750000   21.610000
     46          1           0       23.810000   17.710000   22.230000
     47          8           0       14.740000   20.280000   20.170000
     48          1           0       15.480000   20.410000   20.770000
     49          1           0       14.410000   21.160000   20.000000
     50          8           0       20.830000   19.210000   25.320000
     51          1           0       21.210000   19.320000   24.450000
     52          1           0       20.250000   19.960000   25.430000
     53          8           0       21.100000   22.820000   24.640000
     54          1           0       20.930000   22.680000   23.710000
     55          1           0       21.870000   22.280000   24.830000
     56          8           0       24.900000   20.230000   19.500000
     57          1           0       24.700000   19.530000   20.120000
     58          1           0       25.850000   20.230000   19.440000
     59          8           0       19.940000   14.720000   19.850000
     60          1           0       19.250000   15.290000   19.500000
     61          1           0       20.580000   14.660000   19.140000
     62          8           0       23.340000   20.720000   24.480000
     63          1           0       23.200000   20.380000   23.590000
     64          1           0       24.020000   20.150000   24.840000
     65          8           0       20.870000   16.010000   22.650000
     66          1           0       20.810000   15.360000   21.960000
     67          1           0       21.350000   15.580000   23.360000
     68          8           0       23.950000   16.490000   18.100000
     69          1           0       24.370000   15.650000   18.270000
     70          1           0       23.410000   16.650000   18.870000
     71          8           0       15.530000   18.340000   18.390000
     72          1           0       15.270000   18.900000   19.120000
     73          1           0       15.530000   18.920000   17.630000
     74          8           0       17.810000   23.770000   23.500000
     75          1           0       17.820000   24.640000   23.900000
     76          1           0       18.370000   23.840000   22.740000
     77          8           0       16.040000   16.160000   20.540000
     78          1           0       15.930000   16.480000   21.440000
     79          1           0       16.030000   16.950000   20.000000
     80          8           0       15.690000   20.400000   16.190000
     81          1           0       16.640000   20.460000   16.220000
     82          1           0       15.380000   21.290000   16.410000
     83          8           0       22.130000   18.540000   15.350000
     84          1           0       22.800000   19.030000   15.830000
     85          1           0       22.020000   19.040000   14.540000
     86          8           0       19.020000   25.550000   20.850000
     87          1           0       19.680000   25.010000   21.280000
     88          1           0       19.520000   26.290000   20.500000
     89          8           0       23.670000   23.220000   16.780000
     90          1           0       22.960000   23.810000   17.030000
     91          1           0       23.750000   22.610000   17.510000
     92          8           0       17.260000   21.350000   24.270000
     93          1           0       17.640000   21.260000   25.140000
     94          1           0       17.490000   22.240000   24.000000
     95          8           0       24.390000   19.920000   16.240000
     96          1           0       24.370000   20.460000   17.030000
     97          1           0       24.950000   20.410000   15.630000
     98          8           0       18.210000   20.480000   13.890000
     99          1           0       18.720000   19.820000   13.410000
    100          1           0       18.540000   20.420000   14.790000
    101          8           0       17.870000   24.000000   15.340000
    102          1           0       17.810000   23.360000   16.040000
    103          1           0       18.520000   23.640000   14.740000
    104          8           0       17.350000   18.000000   25.350000
    105          1           0       17.320000   18.930000   25.100000
    106          1           0       17.770000   17.570000   24.610000
    107          8           0       25.120000   19.580000   22.740000
    108          1           0       25.340000   20.510000   22.770000
    109          1           0       25.930000   19.130000   23.000000
    110          8           0       24.640000   24.040000   21.260000
    111          1           0       25.030000   23.200000   21.460000
    112          1           0       24.330000   23.950000   20.350000
    113          8           0       17.690000   13.930000   21.060000
    114          1           0       17.360000   14.780000   20.770000
    115          1           0       18.640000   14.040000   21.090000
    116          8           0       16.380000   25.280000   20.640000
    117          1           0       17.310000   25.210000   20.870000
    118          1           0       16.280000   26.180000   20.330000
    119          8           0       22.490000   22.250000   14.500000
    120          1           0       22.730000   22.940000   13.880000
    121          1           0       22.900000   22.500000   15.320000
    122          8           0       21.150000   14.590000   17.550000
    123          1           0       21.690000   14.990000   16.860000
    124          1           0       20.730000   13.850000   17.110000
    125          8           0       17.570000   15.890000   15.190000
    126          1           0       17.510000   16.020000   16.140000
    127          1           0       16.970000   16.540000   14.830000
    128          8           0       22.850000   15.910000   15.650000
    129          1           0       22.620000   16.720000   15.180000
    130          1           0       23.490000   16.180000   16.300000
    131          8           0       21.570000   16.730000   26.100000
    132          1           0       21.000000   16.590000   26.850000
    133          1           0       21.290000   17.570000   25.740000
    134          8           0       25.580000   17.610000   16.340000
    135          1           0       25.150000   18.460000   16.400000
    136          1           0       25.330000   17.150000   17.140000
    137          8           0       14.470000   21.860000   24.160000
    138          1           0       15.360000   21.540000   24.310000
    139          1           0       14.490000   22.770000   24.460000
    140          8           0       19.530000   22.870000   13.350000
    141          1           0       19.430000   22.030000   13.800000
    142          1           0       20.130000   22.680000   12.630000
    143          8           0       18.980000   21.200000   26.390000
    144          1           0       18.670000   20.940000   27.260000
    145          1           0       19.330000   22.080000   26.520000
    146          8           0       15.970000   18.300000   14.070000
    147          1           0       16.400000   19.050000   14.470000
    148          1           0       15.050000   18.390000   14.330000
    149          8           0       25.480000   15.060000   21.630000
    150          1           0       25.280000   14.760000   20.740000
    151          1           0       24.710000   15.570000   21.880000
    152          8           0       22.460000   26.940000   18.210000
    153          1           0       21.630000   27.370000   18.430000
    154          1           0       22.200000   26.120000   17.790000
    155          8           0       21.070000   25.850000   23.460000
    156          1           0       21.310000   26.220000   24.310000
    157          1           0       20.980000   26.610000   22.890000
    158          8           0       13.710000   15.520000   19.150000
    159          1           0       14.580000   15.690000   19.510000
    160          1           0       13.100000   15.810000   19.830000
    161          8           0       19.490000   17.250000   13.200000
    162          1           0       19.080000   16.760000   13.910000
    163          1           0       20.280000   16.760000   12.990000
    164          8           0       12.570000   18.380000   20.920000
    165          1           0       12.270000   17.720000   21.530000
    166          1           0       13.240000   18.870000   21.410000
    167          8           0       22.640000   12.840000   20.650000
    168          1           0       21.780000   13.260000   20.650000
    169          1           0       22.760000   12.530000   21.540000
    170          8           0       25.150000   22.740000   25.350000
    171          1           0       24.860000   22.900000   26.250000
    172          1           0       24.470000   22.180000   24.980000
    173          8           0       19.080000   17.550000   27.520000
    174          1           0       18.940000   17.980000   26.670000
    175          1           0       18.270000   17.050000   27.660000
    176          8           0       20.900000   19.640000   12.970000
    177          1           0       20.960000   19.950000   12.070000
    178          1           0       20.570000   18.750000   12.900000
    179          8           0       26.300000   22.000000   22.720000
    180          1           0       26.400000   22.210000   23.650000
    181          1           0       27.170000   21.720000   22.440000
    182          8           0       17.410000   14.190000   24.910000
    183          1           0       17.600000   15.090000   24.660000
    184          1           0       16.510000   14.210000   25.220000
    185          8           0       22.510000   20.670000   27.660000
    186          1           0       22.050000   20.360000   26.880000
    187          1           0       23.440000   20.580000   27.440000
    188          8           0       14.030000   18.950000   24.000000
    189          1           0       14.220000   19.730000   24.520000
    190          1           0       13.660000   18.330000   24.630000
    191          8           0       12.680000   18.640000   18.250000
    192          1           0       13.260000   17.900000   18.070000
    193          1           0       12.830000   18.850000   19.170000
    194          8           0       27.320000   19.330000   19.280000
    195          1           0       27.190000   18.500000   19.740000
    196          1           0       28.270000   19.400000   19.170000
    197          8           0       15.990000   22.400000   13.270000
    198          1           0       16.690000   21.910000   13.690000
    199          1           0       15.930000   23.220000   13.760000
    200          8           0       18.130000   12.120000   18.850000
    201          1           0       18.200000   12.860000   19.450000
    202          1           0       17.290000   12.230000   18.420000
    203          8           0       13.040000   22.550000   19.520000
    204          1           0       12.780000   22.280000   20.400000
    205          1           0       12.740000   23.460000   19.460000
    206          8           0       12.910000   21.140000   16.870000
    207          1           0       12.990000   20.420000   17.490000
[...]
   Y335      25.30343  -0.01162   0.00000  -0.00758  -0.00788  25.29555
   Z335      29.15847  -0.00037   0.00000  -0.00133  -0.00147  29.15701
   X336      29.83878   0.00400   0.00000   0.00488   0.00644  29.84522
   Y336      26.77742   0.00960   0.00000   0.00760   0.00732  26.78474
   Z336      28.15692  -0.00158   0.00000   0.00297   0.00286  28.15978
   X337      28.17582  -0.00801   0.00000  -0.00848  -0.00696  28.16886
   Y337      25.75697   0.00110   0.00000  -0.00063  -0.00104  25.75593
   Z337      30.25452   0.00365   0.00000   0.00179   0.00158  30.25609
   X338      44.82430   0.01383   0.00000   0.00662   0.00820  44.83250
   Y338      21.86413  -0.00495   0.00000  -0.00469  -0.00397  21.86016
   Z338      34.41191   0.00623   0.00000   0.00488   0.00552  34.41744
   X339      43.29363  -0.01351   0.00000  -0.01322  -0.01173  43.28190
   Y339      22.26097  -0.00298   0.00000  -0.00857  -0.00796  22.25301
   Z339      35.30008   0.00246   0.00000  -0.00108  -0.00052  35.29956
   X340      44.42746   0.00156   0.00000   0.00520   0.00684  44.43430
   Y340      22.16649   0.00534   0.00000   0.00672   0.00743  22.17391
   Z340      32.67336  -0.00784   0.00000  -0.00413  -0.00351  32.66986
   X341      26.58845   0.00597   0.00000   0.00425   0.00348  26.59193
   Y341      46.33608  -0.00212   0.00000  -0.00100  -0.00162  46.33447
   Z341      46.84631  -0.00392   0.00000   0.00061   0.00044  46.84675
   X342      24.84990  -0.01003   0.00000  -0.00686  -0.00767  24.84223
   Y342      46.37388  -0.00176   0.00000  -0.00280  -0.00354  46.37034
   Z342      47.35654   0.00233   0.00000   0.00127   0.00101  47.35755
   X343      27.49552   0.00358   0.00000   0.00423   0.00334  27.49886
   Y343      46.82741   0.00278   0.00000   0.00381   0.00325  46.83066
   Z343      48.33919   0.00551   0.00000   0.00546   0.00535  48.34454
   X344      46.67624   0.00057   0.00000  -0.00290  -0.00127  46.67496
   Y344      24.92549  -0.02981   0.00000  -0.02317  -0.02229  24.90319
   Z344      29.44193   0.01538   0.00000   0.01385   0.01460  29.45654
   X345      44.95658  -0.01046   0.00000  -0.00729  -0.00567  44.95092
   Y345      25.28454   0.00202   0.00000  -0.00284  -0.00207  25.28246
   Z345      29.02619  -0.00785   0.00000  -0.00987  -0.00920  29.01699
   X346      47.58330   0.00547   0.00000  -0.00223  -0.00069  47.58261
   Y346      26.41837   0.01700   0.00000   0.00471   0.00566  26.42403
   Z346      29.02619  -0.00531   0.00000  -0.00233  -0.00152  29.02468
   X347      26.05932  -0.00815   0.00000  -0.00783  -0.00695  26.05238
   Y347      39.74094   0.00193   0.00000   0.00622   0.00570  39.74664
   Z347      24.05621  -0.01007   0.00000  -0.01149  -0.01172  24.04449
   X348      25.49241  -0.00452   0.00000  -0.00740  -0.00654  25.48587
   Y348      38.90946  -0.00527   0.00000  -0.00724  -0.00780  38.90166
   Z348      25.56799  -0.00668   0.00000  -0.01437  -0.01464  25.55335
   X349      27.68449   0.00582   0.00000   0.00081   0.00162  27.68611
   Y349      40.40234   0.00606   0.00000   0.00724   0.00684  40.40918
   Z349      24.50975  -0.00048   0.00000  -0.00332  -0.00347  24.50628
   X350      31.84189  -0.01020   0.00000  -0.00967  -0.01063  31.83126
   Y350      43.76606   0.01616   0.00000   0.01360   0.01331  43.77937
   Z350      53.76271  -0.00082   0.00000  -0.00589  -0.00580  53.75691
   X351      31.91747   0.00160   0.00000   0.00163   0.00080  31.91827
   Y351      41.95192  -0.01031   0.00000  -0.00235  -0.00263  41.94929
   Z351      53.72491   0.00428   0.00000   0.00841   0.00850  53.73341
   X352      33.25918   0.00553   0.00000   0.00555   0.00461  33.26379
   Y352      44.29518   0.00088   0.00000   0.00125   0.00106  44.29624
   Z352      52.76115  -0.00259   0.00000  -0.00132  -0.00115  52.76000
   X353      51.66511  -0.01381   0.00000  -0.01707  -0.01695  51.64817
   Y353      32.61667  -0.00630   0.00000   0.00022   0.00133  32.61801
   Z353      47.73448   0.01201   0.00000   0.00433   0.00539  47.73988
   X354      52.43990   0.00798   0.00000   0.00907   0.00906  52.44896
   Y354      34.07176   0.00687   0.00000   0.00224   0.00340  34.07516
   Z354      48.47148   0.00123   0.00000  -0.00121  -0.00009  48.47138
   X355      51.81629   0.00650   0.00000   0.00885   0.00906  51.82535
   Y355      32.88123   0.00289   0.00000   0.00020   0.00134  32.88257
   Z355      45.95814  -0.01643   0.00000  -0.01185  -0.01077  45.94737
   X356      22.54443   0.00613   0.00000   0.00342   0.00447  22.54891
   Y356      32.42770  -0.00591   0.00000  -0.00917  -0.00997  32.41773
   Z356      30.33010  -0.01359   0.00000  -0.00727  -0.00773  30.32237
   X357      21.01375  -0.00741   0.00000  -0.00837  -0.00724  21.00651
   Y357      31.50173  -0.00383   0.00000  -0.00308  -0.00398  31.49776
   Z357      30.08444  -0.00113   0.00000  -0.00143  -0.00198  30.08246
   X358      22.58223  -0.00424   0.00000  -0.00771  -0.00677  22.57545
   Y358      32.76785   0.01032   0.00000   0.01572   0.01491  32.78277
   Z358      32.10645   0.01164   0.00000   0.00483   0.00437  32.11081
   X359      33.52374   0.00131   0.00000  -0.00272  -0.00177  33.52197
   Y359      21.80744  -0.01142   0.00000  -0.00923  -0.00936  21.79808
   Z359      46.31719   0.00951   0.00000   0.00469   0.00473  46.32192
   X360      32.80565  -0.00288   0.00000  -0.00137  -0.00030  32.80534
   Y360      21.42949  -0.00104   0.00000  -0.00092  -0.00109  21.42841
   Z360      44.69202  -0.01200   0.00000  -0.01063  -0.01063  44.68140
   X361      33.76941   0.00326   0.00000   0.00422   0.00504  33.77445
   Y361      23.60268   0.00714   0.00000   0.00136   0.00125  23.60393
   Z361      46.29829  -0.00369   0.00000  -0.00487  -0.00479  46.29350
   X362      52.19424   0.01762   0.00000   0.01340   0.01276  52.20699
   Y362      44.69202  -0.02050   0.00000  -0.01849  -0.01733  44.67469
   Z362      46.50616   0.01074   0.00000  -0.00206  -0.00090  46.50526
   X363      50.62576  -0.00507   0.00000  -0.00093  -0.00157  50.62420
   Y363      44.10621   0.00517   0.00000   0.00891   0.00996  44.11616
   Z363      47.22426   0.00558   0.00000   0.00789   0.00897  47.23323
   X364      51.70291  -0.01100   0.00000  -0.00781  -0.00847  51.69444
   Y364      45.90145   0.01910   0.00000   0.01276   0.01389  45.91534
   Z364      45.27784  -0.01446   0.00000  -0.00601  -0.00486  45.27298
   X365      25.11446   0.00235   0.00000  -0.00010   0.00130  25.11576
   Y365      25.77586  -0.00605   0.00000   0.00189   0.00126  25.77713
   Z365      32.44660  -0.00681   0.00000  -0.00501  -0.00538  32.44122
   X366      24.96328   0.00250   0.00000   0.00388   0.00513  24.96841
   Y366      27.34434   0.01286   0.00000   0.01045   0.00980  27.35414
   Z366      33.35367   0.01066   0.00000   0.01112   0.01075  33.36442
   X367      23.58378  -0.00162   0.00000  -0.00228  -0.00082  23.58296
   Y367      25.66248  -0.00202   0.00000  -0.00205  -0.00278  25.65970
   Z367      31.48284  -0.00394   0.00000  -0.00508  -0.00553  31.47731
   X368      22.22318  -0.00652   0.00000  -0.00227  -0.00268  22.22050
   Y368      40.21337   0.00267   0.00000  -0.00004  -0.00097  40.21241
   Z368      48.01794   0.00989   0.00000   0.01520   0.01477  48.03271
   X369      21.22162  -0.00211   0.00000  -0.00142  -0.00171  21.21991
   Y369      38.75828  -0.00183   0.00000   0.00050  -0.00049  38.75780
   Z369      47.60220  -0.00409   0.00000  -0.00592  -0.00641  47.59579
   X370      23.92393   0.01055   0.00000   0.00818   0.00783  23.93176
   Y370      39.68425   0.00298   0.00000   0.00893   0.00813  39.69238
   Z370      47.71558  -0.00636   0.00000  -0.00896  -0.00930  47.70628
   X371      41.64956  -0.01795   0.00000  -0.01329  -0.01445  41.63511
   Y371      54.36742   0.00167   0.00000  -0.00879  -0.00835  54.35907
   Z371      43.63378   0.01814   0.00000   0.00925   0.00992  43.64370
   X372      42.85899   0.01799   0.00000   0.01429   0.01325  42.87224
   Y372      53.46035  -0.01044   0.00000  -0.00548  -0.00495  53.45541
   Z372      42.65112  -0.01519   0.00000  -0.01052  -0.00978  42.64133
   X373      40.68580  -0.00075   0.00000   0.00122   0.00006  40.68586
   Y373      55.31228   0.00183   0.00000   0.00091   0.00129  55.31358
   Z373      42.42435  -0.00413   0.00000  -0.00279  -0.00216  42.42219
   X374      30.97261   0.01451   0.00000   0.00954   0.00952  30.98214
   Y374      30.63246   0.00761   0.00000   0.00665   0.00631  30.63877
   Z374      53.02572  -0.00390   0.00000  -0.00335  -0.00338  53.02234
   X375      29.74429  -0.00829   0.00000  -0.00255  -0.00257  29.74172
   Y375      29.97106  -0.00533   0.00000  -0.00279  -0.00323  29.96782
   Z375      54.15955   0.00750   0.00000   0.00382   0.00372  54.16327
   X376      30.23562  -0.00299   0.00000  -0.00135  -0.00127  30.23435
   Y376      30.50018  -0.00085   0.00000  -0.00021  -0.00060  30.49958
   Z376      51.38165  -0.00680   0.00000  -0.00582  -0.00590  51.37576
   X377      32.06865   0.01151   0.00000   0.00646   0.00584  32.07449
   Y377      38.66380   0.00677   0.00000   0.00153   0.00125  38.66505
   Z377      54.19735  -0.00557   0.00000  -0.00639  -0.00632  54.19103
   X378      32.06865   0.00532   0.00000   0.00974   0.00906  32.07772
   Y378      38.05908  -0.00211   0.00000   0.00023  -0.00006  38.05903
   Z378      55.89810   0.00882   0.00000   0.00498   0.00505  55.90315
   X379      30.57577  -0.01315   0.00000  -0.00792  -0.00846  30.56731
   Y379      37.94570  -0.01010   0.00000  -0.01025  -0.01063  37.93507
   Z379      53.47925  -0.00963   0.00000  -0.00978  -0.00979  53.46946
   X380      28.96950   0.00114   0.00000   0.00370   0.00302  28.97252
   Y380      52.62887  -0.01089   0.00000  -0.00641  -0.00679  52.62208
   Z380      36.84966   0.00802   0.00000   0.00868   0.00867  36.85833
   X381      29.91436   0.00664   0.00000   0.00641   0.00568  29.92004
   Y381      53.93278   0.00567   0.00000   0.00101   0.00069  53.93348
   Z381      36.03708  -0.00485   0.00000  -0.00307  -0.00302  36.03406
   X382      27.28765  -0.00399   0.00000  -0.00138  -0.00212  27.28553
   Y382      53.29028   0.00078   0.00000  -0.00108  -0.00158  53.28870
   Z382      37.00084   0.00005   0.00000   0.00002  -0.00007  37.00076
   X383      35.48906   0.01727   0.00000   0.01108   0.01160  35.50066
   Y383      24.47195   0.00751   0.00000   0.00575   0.00572  24.47768
   Z383      51.07930   0.01147   0.00000   0.01363   0.01380  51.09310
   X384      34.05286  -0.00810   0.00000   0.00045   0.00106  34.05392
   Y384      23.41371  -0.00648   0.00000  -0.00337  -0.00349  23.41022
   Z384      50.83363  -0.00858   0.00000  -0.01082  -0.01074  50.82289
   X385      35.11111  -0.00508   0.00000  -0.00595  -0.00549  35.10562
   Y385      25.98373  -0.00380   0.00000  -0.00700  -0.00704  25.97669
   Z385      50.13443  -0.00335   0.00000  -0.00401  -0.00386  50.13058
         Item               Value     Threshold  Converged?
 Maximum Force            0.033857     0.000450     NO 
 RMS     Force            0.011125     0.000300     NO 
 Maximum Displacement     0.027808     0.001800     NO 
 RMS     Displacement     0.008804     0.001200     NO 
 Predicted change in Energy=-7.732985D-02
 GradGradGradGradGradGradGradGradGradGradGradGradGradGradGradGradGradGrad

 Leave Link  103 at Fri May  4 09:27:59 2018, MaxMem= 14763950080 cpu:      2874.0
 (Enter /cm/shared/gaussian/g09.e01/intel64-sandybridge/g09/l9999.exe)
 1\1\GINC-POPLE04\Force\RPBE1PBE\CC-pVDZ\Br1H256O128(1-)\M.PELUSO\04-Ma
 y-2018\0\\#p PBE1PBE/cc-pvDZ force Counterpoise=2 noSymm\\forces on ch
 loride comput - NWATER: 128\\-1,1\Br,20.,20.,20.\O,17.24,20.22,21.49\H
 ,18.14,20.17,21.19\H,17.29,20.68,22.33\O,20.17,17.87,17.54\H,20.73,18.
 23,16.85\H,20.17,18.53,18.23\O,19.52,23.15,19.07\H,19.69,22.32,19.51\H
 ,19.31,23.76,19.78\O,22.71,21.24,18.43\H,23.42,20.82,18.93\H,21.91,21.
 ,18.9\O,21.65,18.94,22.72\H,21.49,18.,22.77\H,21.,19.25,22.09\O,21.82,
 17.11,19.76\H,21.63,18.,20.06\H,21.06,16.89,19.21\O,18.42,20.33,16.83\
 H,19.29,20.72,16.74\H,18.42,19.94,17.7\O,20.69,21.4,16.38\H,21.27,21.1
 8,17.11\H,21.29,21.5,15.63\O,17.8,16.51,17.89\H,18.58,17.05,17.84\H,17
 .11,17.1,18.19\O,16.57,22.64,17.84\H,17.04,21.98,18.35\H,16.73,23.46,1
 8.3\O,16.18,18.04,22.51\H,16.55,18.89,22.24\H,15.5,18.27,23.13\O,20.8,
 23.83,21.86\H,21.68,23.64,21.52\H,20.95,24.45,22.57\O,18.09,16.52,23.3
 4\H,18.83,16.73,22.77\H,17.39,17.11,23.05\O,21.37,24.43,17.32\H,20.95,
 24.03,18.08\H,20.71,24.4,16.63\O,23.64,16.78,22.1\H,22.82,16.75,21.61\
 H,23.81,17.71,22.23\O,14.74,20.28,20.17\H,15.48,20.41,20.77\H,14.41,21
 .16,20.\O,20.83,19.21,25.32\H,21.21,19.32,24.45\H,20.25,19.96,25.43\O,
 21.1,22.82,24.64\H,20.93,22.68,23.71\H,21.87,22.28,24.83\O,24.9,20.23,
 19.5\H,24.7,19.53,20.12\H,25.85,20.23,19.44\O,19.94,14.72,19.85\H,19.2
 5,15.29,19.5\H,20.58,14.66,19.14\O,23.34,20.72,24.48\H,23.2,20.38,23.5
 9\H,24.02,20.15,24.84\O,20.87,16.01,22.65\H,20.81,15.36,21.96\H,21.35,
 15.58,23.36\O,23.95,16.49,18.1\H,24.37,15.65,18.27\H,23.41,16.65,18.87
 \O,15.53,18.34,18.39\H,15.27,18.9,19.12\H,15.53,18.92,17.63\O,17.81,23
 .77,23.5\H,17.82,24.64,23.9\H,18.37,23.84,22.74\O,16.04,16.16,20.54\H,
 15.93,16.48,21.44\H,16.03,16.95,20.\O,15.69,20.4,16.19\H,16.64,20.46,1
 6.22\H,15.38,21.29,16.41\O,22.13,18.54,15.35\H,22.8,19.03,15.83\H,22.0
 2,19.04,14.54\O,19.02,25.55,20.85\H,19.68,25.01,21.28\H,19.52,26.29,20
 .5\O,23.67,23.22,16.78\H,22.96,23.81,17.03\H,23.75,22.61,17.51\O,17.26
 ,21.35,24.27\H,17.64,21.26,25.14\H,17.49,22.24,24.\O,24.39,19.92,16.24
 \H,24.37,20.46,17.03\H,24.95,20.41,15.63\O,18.21,20.48,13.89\H,18.72,1
 9.82,13.41\H,18.54,20.42,14.79\O,17.87,24.,15.34\H,17.81,23.36,16.04\H
 ,18.52,23.64,14.74\O,17.35,18.,25.35\H,17.32,18.93,25.1\H,17.77,17.57,
 24.61\O,25.12,19.58,22.74\H,25.34,20.51,22.77\H,25.93,19.13,23.\O,24.6
 4,24.04,21.26\H,25.03,23.2,21.46\H,24.33,23.95,20.35\O,17.69,13.93,21.
 06\H,17.36,14.78,20.77\H,18.64,14.04,21.09\O,16.38,25.28,20.64\H,17.31
 ,25.21,20.87\H,16.28,26.18,20.33\O,22.49,22.25,14.5\H,22.73,22.94,13.8
 8\H,22.9,22.5,15.32\O,21.15,14.59,17.55\H,21.69,14.99,16.86\H,20.73,13
 .85,17.11\O,17.57,15.89,15.19\H,17.51,16.02,16.14\H,16.97,16.54,14.83\
 O,22.85,15.91,15.65\H,22.62,16.72,15.18\H,23.49,16.18,16.3\O,21.57,16.
 73,26.1\H,21.,16.59,26.85\H,21.29,17.57,25.74\O,25.58,17.61,16.34\H,25
 .15,18.46,16.4\H,25.33,17.15,17.14\O,14.47,21.86,24.16\H,15.36,21.54,2
 4.31\H,14.49,22.77,24.46\O,19.53,22.87,13.35\H,19.43,22.03,13.8\H,20.1
 3,22.68,12.63\O,18.98,21.2,26.39\H,18.67,20.94,27.26\H,19.33,22.08,26.
 52\O,15.97,18.3,14.07\H,16.4,19.05,14.47\H,15.05,18.39,14.33\O,25.48,1
 5.06,21.63\H,25.28,14.76,20.74\H,24.71,15.57,21.88\O,22.46,26.94,18.21
 \H,21.63,27.37,18.43\H,22.2,26.12,17.79\O,21.07,25.85,23.46\H,21.31,26
 .22,24.31\H,20.98,26.61,22.89\O,13.71,15.52,19.15\H,14.58,15.69,19.51\
 H,13.1,15.81,19.83\O,19.49,17.25,13.2\H,19.08,16.76,13.91\H,20.28,16.7
 6,12.99\O,12.57,18.38,20.92\H,12.27,17.72,21.53\H,13.24,18.87,21.41\O,
 22.64,12.84,20.65\H,21.78,13.26,20.65\H,22.76,12.53,21.54\O,25.15,22.7
 4,25.35\H,24.86,22.9,26.25\H,24.47,22.18,24.98\O,19.08,17.55,27.52\H,1
 8.94,17.98,26.67\H,18.27,17.05,27.66\O,20.9,19.64,12.97\H,20.96,19.95,
 12.07\H,20.57,18.75,12.9\O,26.3,22.,22.72\H,26.4,22.21,23.65\H,27.17,2
 1.72,22.44\O,17.41,14.19,24.91\H,17.6,15.09,24.66\H,16.51,14.21,25.22\
 O,22.51,20.67,27.66\H,22.05,20.36,26.88\H,23.44,20.58,27.44\O,14.03,18
 .95,24.\H,14.22,19.73,24.52\H,13.66,18.33,24.63\O,12.68,18.64,18.25\H,
 13.26,17.9,18.07\H,12.83,18.85,19.17\O,27.32,19.33,19.28\H,27.19,18.5,
 19.74\H,28.27,19.4,19.17\O,15.99,22.4,13.27\H,16.69,21.91,13.69\H,15.9
 3,23.22,13.76\O,18.13,12.12,18.85\H,18.2,12.86,19.45\H,17.29,12.23,18.
 42\O,13.04,22.55,19.52\H,12.78,22.28,20.4\H,12.74,23.46,19.46\O,12.91,
 21.14,16.87\H,12.99,20.42,17.49\H,12.79,21.91,17.42\O,26.88,16.89,20.2
 1\H,26.42,16.28,20.78\H,27.31,16.34,19.55\O,13.84,25.18,22.\H,13.88,25
 .04,22.95\H,14.75,25.09,21.71\O,25.58,24.52,15.46\H,25.28,24.64,14.56\
 H,24.9,23.99,15.87\O,16.8,26.42,15.72\H,16.93,26.82,14.86\H,17.25,25.5
 8,15.67\O,19.29,23.85,27.15\H,19.61,24.21,26.32\H,19.98,24.07,27.78\O,
 24.78,13.96,19.19\H,23.98,13.48,19.4\H,25.41,13.28,18.96\O,20.43,12.82
 ,22.65\H,20.65,12.93,23.58\H,20.31,11.87,22.54\O,14.5,25.68,17.11\H,14
 .75,24.76,17.03\H,15.24,26.16,16.74\O,12.42,21.7,22.24\H,13.07,21.66,2
 2.93\H,12.18,20.79,22.08\O,21.88,14.17,25.06\H,21.68,14.93,25.6\H,21.7
 3,13.42,25.63\O,21.97,13.6,14.68\H,21.43,13.67,13.89\H,22.1,14.5,14.96
 \O,26.32,25.55,22.72\H,25.66,24.95,22.38\H,26.85,25.78,21.96\O,14.87,1
 3.97,22.41\H,15.7,14.05,22.89\H,14.41,13.26,22.86\O,21.68,22.26,11.75\
 H,22.,21.87,12.56\H,21.91,21.62,11.07\O,20.11,27.93,19.77\H,19.51,27.8
 7,19.02\H,20.36,28.86,19.8\O,25.71,19.71,25.53\H,25.83,19.68,26.48\H,2
 5.93,18.83,25.24\O,24.96,14.68,24.98\H,24.89,13.73,24.92\H,24.58,14.99
 ,24.16\O,27.8,18.54,22.58\H,27.65,18.24,21.68\H,28.24,19.39,22.48\O,23
 .72,27.33,21.35\H,23.7,27.6,20.43\H,24.37,26.64,21.39\O,15.32,12.79,19
 .06\H,15.4,13.37,19.82\H,14.82,13.3,18.42\O,18.14,28.01,17.77\H,17.84,
 28.79,17.31\H,17.76,27.28,17.29\O,17.84,26.,25.\H,17.38,26.32,25.78\H,
 18.61,26.56,24.93\O,21.16,25.34,13.94\H,20.53,24.81,13.45\H,21.99,25.2
 4,13.46\O,15.96,27.19,23.\H,16.09,26.37,23.48\H,15.62,26.91,22.15\O,17
 .4,18.13,11.6\H,18.04,17.89,12.27\H,16.61,18.34,12.08\O,20.81,11.47,18
 .36\H,20.03,11.82,18.79\H,20.63,11.54,17.43\O,25.68,15.45,14.64\H,25.5
 8,16.27,15.11\H,25.2,15.57,13.82\O,16.79,11.43,21.49\H,17.13,12.32,21.
 43\H,17.2,10.96,20.77\O,18.28,14.24,13.11\H,17.98,14.72,13.89\H,17.49,
 14.01,12.64\O,23.79,25.12,26.22\H,23.2,25.75,25.8\H,24.23,24.68,25.49\
 O,24.26,16.6,27.03\H,23.35,16.42,26.8\H,24.75,16.37,26.24\O,12.81,25.1
 9,19.5\H,13.42,25.23,20.24\H,13.06,25.94,18.95\O,25.84,21.65,14.15\H,2
 6.26,22.27,14.75\H,26.57,21.2,13.72\O,12.93,19.31,14.5\H,12.38,18.61,1
 4.84\H,13.04,19.91,15.23\O,24.19,18.93,12.34\H,25.05,19.01,11.93\H,23.
 91,19.83,12.47\O,14.81,19.17,27.4\H,13.87,19.3,27.48\H,14.9,18.5,26.72
 \O,22.34,16.74,12.37\H,22.82,17.57,12.28\H,23.02,16.07,12.4\O,12.49,15
 .3,21.62\H,13.31,14.86,21.85\H,11.84,14.6,21.65\O,20.3,20.01,29.04\H,2
 0.05,19.18,28.62\H,21.18,20.18,28.71\O,25.14,27.18,18.43\H,24.22,27.37
 ,18.28\H,25.47,26.88,17.58\O,28.21,17.86,15.49\H,27.47,17.83,16.1\H,28
 .07,17.13,14.9\O,20.57,27.78,14.75\H,20.87,26.87,14.65\H,21.23,28.3,14
 .29\O,15.64,13.39,15.43\H,15.79,14.17,14.9\H,14.91,13.63,16.01\O,23.72
 ,11.57,18.21\H,22.91,11.78,18.68\H,23.51,11.73,17.29\O,14.07,24.52,24.
 79\H,13.15,24.54,25.06\H,14.55,24.78,25.58\O,24.7,13.19,15.58\H,23.79,
 13.38,15.36\H,25.18,13.98,15.36\O,13.79,21.03,12.73\H,13.49,20.59,13.5
 3\H,14.65,21.38,12.97\O,16.85,23.16,28.45\H,16.89,22.2,28.43\H,17.6,23
 .44,27.92\O,27.34,17.26,25.26\H,27.75,18.03,25.65\H,27.42,17.4,24.32\O
 ,11.93,17.16,16.05\H,11.12,16.67,15.92\H,11.95,17.34,16.99\O,17.74,11.
 54,24.51\H,17.36,11.34,23.65\H,17.87,12.49,24.5\O,27.62,23.65,24.61\H,
 26.79,23.34,24.99\H,27.36,24.29,23.96\O,13.29,13.64,17.17\H,13.21,14.4
 7,17.65\H,12.48,13.58,16.66\O,11.76,21.28,25.41\H,11.23,20.51,25.19\H,
 12.66,21.,25.25\O,22.04,28.77,23.09\H,22.68,28.29,22.57\H,21.53,29.27,
 22.45\O,16.39,16.21,28.06\H,15.74,15.86,28.66\H,16.,16.14,27.19\O,16.9
 7,20.46,28.68\H,16.97,20.14,29.58\H,16.18,20.08,28.3\O,15.33,27.85,19.
 5\H,15.83,28.54,19.07\H,14.44,28.2,19.58\O,18.78,12.95,27.03\H,18.02,1
 2.39,26.9\H,18.58,13.75,26.53\\Version=ES64L-G09RevE.01\HF=-9773.52327
 69\RMSD=2.511e-09\RMSF=1.113e-02\Dipole=3.6329395,10.9324901,3.9351043
 \Quadrupole=-117.5221328,344.7398762,-227.2177434,-768.5782404,-1342.3
 780481,-919.0674855\PG=C01 [X(Br1H256O128)]\\@


 HE THAT FOLLOWS NATURE IS NEVER LOST.

                             -- BACON
 Job cpu time:       6 days 13 hours 25 minutes 56.6 seconds.
 File lengths (MBytes):  RWF=   7285 Int=      0 D2E=      0 Chk=   2411 Scr=      1
 Normal termination of Gaussian 09 at Fri May  4 09:28:43 2018.
