 Entering Gaussian System, Link 0=/cm/shared/gaussian/g09.e01/intel64-sandybridge/g09/g09
 Initial command:
 /cm/shared/gaussian/g09.e01/intel64-sandybridge/g09/l1.exe "/local/scratch/m.peluso/128_wat/Gau-59073.inp" -scrdir="/local/scratch/m.peluso/128_wat/"
 Entering Link 1 = /cm/shared/gaussian/g09.e01/intel64-sandybridge/g09/l1.exe PID=     59074.
  
 Copyright (c) 1988,1990,1992,1993,1995,1998,2003,2009,2015,
            Gaussian, Inc.  All Rights Reserved.
  
 This is part of the Gaussian(R) 09 program.  It is based on
 the Gaussian(R) 03 system (copyright 2003, Gaussian, Inc.),
 the Gaussian(R) 98 system (copyright 1998, Gaussian, Inc.),
 the Gaussian(R) 94 system (copyright 1995, Gaussian, Inc.),
 the Gaussian 92(TM) system (copyright 1992, Gaussian, Inc.),
 the Gaussian 90(TM) system (copyright 1990, Gaussian, Inc.),
 the Gaussian 88(TM) system (copyright 1988, Gaussian, Inc.),
 the Gaussian 86(TM) system (copyright 1986, Carnegie Mellon
 University), and the Gaussian 82(TM) system (copyright 1983,
 Carnegie Mellon University). Gaussian is a federally registered
 trademark of Gaussian, Inc.
  
 This software contains proprietary and confidential information,
 including trade secrets, belonging to Gaussian, Inc.
  
 This software is provided under written license and may be
 used, copied, transmitted, or stored only in accord with that
 written license.
  
 The following legend is applicable only to US Government
 contracts under FAR:
  
                    RESTRICTED RIGHTS LEGEND
  
 Use, reproduction and disclosure by the US Government is
 subject to restrictions as set forth in subparagraphs (a)
 and (c) of the Commercial Computer Software - Restricted
 Rights clause in FAR 52.227-19.
  
 Gaussian, Inc.
 340 Quinnipiac St., Bldg. 40, Wallingford CT 06492
  
  
 ---------------------------------------------------------------
 Warning -- This program may not be used in any manner that
 competes with the business of Gaussian, Inc. or will provide
 assistance to any competitor of Gaussian, Inc.  The licensee
 of this program is prohibited from giving any competitor of
 Gaussian, Inc. access to this program.  By using this program,
 the user acknowledges that Gaussian, Inc. is engaged in the
 business of creating and licensing software in the field of
 computational chemistry and represents and warrants to the
 licensee that it is not a competitor of Gaussian, Inc. and that
 it will not use this program in any manner prohibited above.
 ---------------------------------------------------------------
  

 Cite this work as:
 Gaussian 09, Revision E.01,
 M. J. Frisch, G. W. Trucks, H. B. Schlegel, G. E. Scuseria, 
 M. A. Robb, J. R. Cheeseman, G. Scalmani, V. Barone, B. Mennucci, 
 G. A. Petersson, H. Nakatsuji, M. Caricato, X. Li, H. P. Hratchian, 
 A. F. Izmaylov, J. Bloino, G. Zheng, J. L. Sonnenberg, M. Hada, 
 M. Ehara, K. Toyota, R. Fukuda, J. Hasegawa, M. Ishida, T. Nakajima, 
 Y. Honda, O. Kitao, H. Nakai, T. Vreven, J. A. Montgomery, Jr., 
 J. E. Peralta, F. Ogliaro, M. Bearpark, J. J. Heyd, E. Brothers, 
 K. N. Kudin, V. N. Staroverov, T. Keith, R. Kobayashi, J. Normand, 
 K. Raghavachari, A. Rendell, J. C. Burant, S. S. Iyengar, J. Tomasi, 
 M. Cossi, N. Rega, J. M. Millam, M. Klene, J. E. Knox, J. B. Cross, 
 V. Bakken, C. Adamo, J. Jaramillo, R. Gomperts, R. E. Stratmann, 
 O. Yazyev, A. J. Austin, R. Cammi, C. Pomelli, J. W. Ochterski, 
 R. L. Martin, K. Morokuma, V. G. Zakrzewski, G. A. Voth, 
 P. Salvador, J. J. Dannenberg, S. Dapprich, A. D. Daniels, 
 O. Farkas, J. B. Foresman, J. V. Ortiz, J. Cioslowski, 
 and D. J. Fox, Gaussian, Inc., Wallingford CT, 2013.
 
 ******************************************
 Gaussian 09:  ES64L-G09RevE.01 30-Nov-2015
                14-May-2018 
 ******************************************
 %Mem=110GB
 %NProcShared=64
 Will use up to   64 processors via shared memory.
 %chk=snap78.chk
 ----------------------------------------------
 #p PBE1PBE/cc-pvDZ force Counterpoise=2 noSymm
 ----------------------------------------------
 1/10=7,30=1,38=1,62=2/1,3;
 2/12=2,15=1,17=6,18=5,40=1/2;
 1/10=7,30=1,38=1,53=2,62=2,63=101/22;
 3/5=16,11=2,16=1,25=1,30=1,71=1,74=-13/1,2,3;
 4//1;
 5/5=2,38=5/2;
 6/7=2,8=2,9=2,10=2,28=1/1;
 7/7=1,29=1,30=1,33=-1/1,2,3,16;
 1/10=7,30=1,53=2,62=2,63=101/22;
 3/5=7,6=11,11=2,16=1,25=1,30=1,71=1,74=-13,82=7/1,2,3;
 4//1;
 5/5=2,38=5/2;
 6/7=2,8=2,9=2,10=2,28=1/1;
 7/7=1,29=1,30=1,33=-1/1,2,3,16;
 1/10=7,30=1,53=2,62=2,63=101/22(-5);
 7/9=1,29=1,44=-1/16;
 1/10=7,30=1,62=2/3;
 99//99;
 Leave Link    1 at Mon May 14 23:25:28 2018, MaxMem= 14763950080 cpu:         9.0
 (Enter /cm/shared/gaussian/g09.e01/intel64-sandybridge/g09/l101.exe)
 ---------------------------------------
 forces on chloride comput - NWATER: 128
 ---------------------------------------
 Symbolic Z-matrix:
 Charge = -1 Multiplicity = 1 in supermolecule
 Charge = -1 Multiplicity = 1 in fragment      1.
 Charge =  0 Multiplicity = 1 in fragment      2.
 Br(Fragment=1)        20.       20.       20. 
 O(Fragment=2)         18.6      18.83     17.5 
 H(Fragment=2)         18.9      19.1      18.36 
 H(Fragment=2)         18.21     17.97     17.64 
 O(Fragment=2)         17.98     18.01     21.31 
 H(Fragment=2)         18.82     18.39     21.04 
 H(Fragment=2)         18.04     17.09     21.05 
 O(Fragment=2)         19.3      22.41     22.02 
 H(Fragment=2)         19.51     21.53     21.73 
 H(Fragment=2)         20.05     22.94     21.76 
 O(Fragment=2)         21.06     22.65     18.48 
 H(Fragment=2)         20.98     22.04     19.21 
 H(Fragment=2)         20.53     22.27     17.79 
 O(Fragment=2)         21.33     17.35     18.25 
 H(Fragment=2)         21.37     18.19     18.72 
 H(Fragment=2)         20.84     16.78     18.84 
 O(Fragment=2)         17.7      22.99     19.5 
 H(Fragment=2)         18.11     22.14     19.33 
 H(Fragment=2)         18.12     23.3      20.3 
 O(Fragment=2)         21.48     17.44     21.74 
 H(Fragment=2)         20.56     17.67     21.73 
 H(Fragment=2)         21.9      18.07     21.16 
 O(Fragment=2)         23.4      21.36     21.28 
 H(Fragment=2)         23.63     22.17     20.83 
 H(Fragment=2)         22.69     20.98     20.75 
 O(Fragment=2)         19.53     21.38     16.68 
 H(Fragment=2)         19.68     21.31     15.74 
 H(Fragment=2)         19.12     20.55     16.91 
 O(Fragment=2)         18.1      18.51     23.94 
 H(Fragment=2)         17.61     19.29     24.18 
 H(Fragment=2)         18.14     18.54     22.98 
 O(Fragment=2)         23.57     18.83     20.68 
 H(Fragment=2)         24.13     18.35     20.07 
 H(Fragment=2)         23.85     19.74     20.6 
 O(Fragment=2)         21.49     17.36     15.55 
 H(Fragment=2)         21.25     17.49     16.47 
 H(Fragment=2)         21.52     16.41     15.44 
 O(Fragment=2)         16.79     23.11     23.18 
 H(Fragment=2)         17.47     22.57     22.77 
 H(Fragment=2)         17.26     23.84     23.58 
 O(Fragment=2)         16.45     20.5      16.74 
 H(Fragment=2)         15.95     20.36     17.55 
 H(Fragment=2)         16.92     19.68     16.6 
 O(Fragment=2)         23.18     24.07     18.11 
 H(Fragment=2)         23.83     23.84     18.77 
 H(Fragment=2)         22.36     23.67     18.42 
 O(Fragment=2)         15.38     22.86     20.88 
 H(Fragment=2)         16.13     22.88     20.29 
 H(Fragment=2)         15.75     22.76     21.75 
 O(Fragment=2)         18.42     15.42     21.22 
 H(Fragment=2)         18.43     14.53     21.58 
 H(Fragment=2)         18.77     15.33     20.34 
 O(Fragment=2)         23.59     18.87     16.29 
 H(Fragment=2)         23.95     18.77     15.41 
 H(Fragment=2)         22.75     18.41     16.25 
 O(Fragment=2)         23.88     16.45     22.52 
 H(Fragment=2)         23.11     16.76     22.03 
 H(Fragment=2)         24.02     17.12     23.19 
 O(Fragment=2)         15.55     17.29     22.62 
 H(Fragment=2)         16.44     17.42     22.27 
 H(Fragment=2)         15.64     17.46     23.56 
 O(Fragment=2)         18.54     24.68     16.67 
 H(Fragment=2)         19.21     25.35     16.54 
 H(Fragment=2)         19.03     23.93     17.01 
 O(Fragment=2)         21.22     24.35     22.36 
 H(Fragment=2)         21.57     23.98     23.18 
 H(Fragment=2)         21.95     24.31     21.75 
 O(Fragment=2)         21.35     19.09     25.35 
 H(Fragment=2)         20.57     19.01     25.91 
 H(Fragment=2)         21.26     19.95     24.94 
 O(Fragment=2)         15.07     19.56     18.76 
 H(Fragment=2)         14.77     18.66     18.59 
 H(Fragment=2)         14.82     19.72     19.67 
 O(Fragment=2)         24.61     17.37     18.39 
 H(Fragment=2)         24.23     17.95     17.73 
 H(Fragment=2)         23.88     16.82     18.67 
 O(Fragment=2)         16.       23.15     17.32 
 H(Fragment=2)         16.63     23.41     17.99 
 H(Fragment=2)         16.46     22.49     16.8 
 O(Fragment=2)         23.23     22.48     15.76 
 H(Fragment=2)         22.97     23.11     16.43 
 H(Fragment=2)         22.55     21.8      15.81 
 O(Fragment=2)         20.94     20.18     14.55 
 H(Fragment=2)         20.57     19.33     14.79 
 H(Fragment=2)         21.79     19.97     14.16 
 O(Fragment=2)         21.05     16.4      24.6 
 H(Fragment=2)         21.15     17.34     24.44 
 H(Fragment=2)         20.73     16.34     25.49 
 O(Fragment=2)         19.5      14.87     18.72 
 H(Fragment=2)         20.2      14.38     18.29 
 H(Fragment=2)         18.75     14.81     18.13 
 O(Fragment=2)         19.08     24.49     24.12 
 H(Fragment=2)         19.65     24.15     23.43 
 H(Fragment=2)         19.6      24.43     24.92 
 O(Fragment=2)         24.4      21.57     24.28 
 H(Fragment=2)         23.97     21.17     23.52 
 H(Fragment=2)         25.2      21.96     23.92 
 O(Fragment=2)         19.14     25.39     20.95 
 H(Fragment=2)         19.8      25.24     21.63 
 H(Fragment=2)         18.55     26.04     21.33 
 O(Fragment=2)         21.3      14.45     22.62 
 H(Fragment=2)         20.72     14.87     21.99 
 H(Fragment=2)         21.31     15.05     23.37 
 O(Fragment=2)         20.7      21.72     25.83 
 H(Fragment=2)         20.38     21.61     26.72 
 H(Fragment=2)         19.91     21.72     25.29 
 O(Fragment=2)         14.92     20.61     23.53 
 H(Fragment=2)         14.47     21.45     23.61 
 H(Fragment=2)         14.85     20.39     22.6 
 O(Fragment=2)         25.59     21.31     17.62 
 H(Fragment=2)         26.33     21.09     17.06 
 H(Fragment=2)         24.83     21.31     17.03 
 O(Fragment=2)         22.36     23.45     24.59 
 H(Fragment=2)         21.84     22.95     25.22 
 H(Fragment=2)         22.93     22.8      24.18 
 O(Fragment=2)         23.58     24.53     20.91 
 H(Fragment=2)         23.67     25.34     20.42 
 H(Fragment=2)         24.3      23.98     20.62 
 O(Fragment=2)         17.78     21.44     25.38 
 H(Fragment=2)         17.77     22.01     26.16 
 H(Fragment=2)         17.14     21.85     24.79 
 O(Fragment=2)         17.67     15.95     24.47 
 H(Fragment=2)         18.07     15.74     23.63 
 H(Fragment=2)         17.68     16.91     24.51 
 O(Fragment=2)         25.51     23.03     19.67 
 H(Fragment=2)         26.42     23.06     19.96 
 H(Fragment=2)         25.47     22.31     19.05 
 O(Fragment=2)         17.63     15.04     16.61 
 H(Fragment=2)         17.28     15.89     16.33 
 H(Fragment=2)         16.86     14.46     16.62 
 O(Fragment=2)         15.97     17.09     16.1 
 H(Fragment=2)         15.75     17.5      15.26 
 H(Fragment=2)         15.17     17.17     16.62 
 O(Fragment=2)         19.09     19.5      26.8 
 H(Fragment=2)         18.52     19.43     27.57 
 H(Fragment=2)         18.63     20.09     26.2 
 O(Fragment=2)         19.56     27.03     18.79 
 H(Fragment=2)         19.57     26.32     19.43 
 H(Fragment=2)         18.66     27.33     18.76 
 O(Fragment=2)         13.56     18.66     21.21 
 H(Fragment=2)         14.14     18.13     21.76 
 H(Fragment=2)         12.73     18.18     21.2 
 O(Fragment=2)         14.3      15.96     20.51 
 H(Fragment=2)         14.71     15.1      20.43 
 H(Fragment=2)         14.81     16.4      21.2 
 O(Fragment=2)         23.92     17.78     24.79 
 H(Fragment=2)         23.49     18.52     25.21 
 H(Fragment=2)         23.99     17.12     25.48 
 O(Fragment=2)         26.43     16.86     21.91 
 H(Fragment=2)         25.57     16.8      21.51 
 H(Fragment=2)         26.34     17.52     22.6 
 O(Fragment=2)         15.25     18.23     25.14 
 H(Fragment=2)         15.31     18.59     26.02 
 H(Fragment=2)         15.33     18.99     24.57 
 O(Fragment=2)         12.92     22.72     20.03 
 H(Fragment=2)         13.82     22.49     20.24 
 H(Fragment=2)         12.77     23.55     20.48 
 O(Fragment=2)         14.07     21.19     15.42 
 H(Fragment=2)         14.96     20.97     15.69 
 H(Fragment=2)         13.72     21.72     16.13 
 O(Fragment=2)         21.85     13.63     17.68 
 H(Fragment=2)         22.69     13.46     18.12 
 H(Fragment=2)         22.07     14.16     16.92 
 O(Fragment=2)         23.98     20.13     26.52 
 H(Fragment=2)         23.88     20.64     25.71 
 H(Fragment=2)         23.68     20.73     27.21 
 O(Fragment=2)         13.71     16.74     17.92 
 H(Fragment=2)         14.11     16.55     18.77 
 H(Fragment=2)         12.81     16.97     18.13 
 O(Fragment=2)         17.27     23.62     14.17 
 H(Fragment=2)         17.32     24.44     14.67 
 H(Fragment=2)         18.17     23.29     14.16 
 O(Fragment=2)         27.5      21.73     21.12 
 H(Fragment=2)         27.48     21.11     20.39 
 H(Fragment=2)         26.58     21.85     21.35 
 O(Fragment=2)         19.05     15.8      14.06 
 H(Fragment=2)         18.72     15.42     14.87 
 H(Fragment=2)         19.65     15.14     13.71 
 O(Fragment=2)         19.56     21.73     12.46 
 H(Fragment=2)         20.17     21.35     13.1 
 H(Fragment=2)         19.63     21.16     11.7 
 O(Fragment=2)         21.98     27.01     23.42 
 H(Fragment=2)         21.39     27.56     22.91 
 H(Fragment=2)         21.98     26.16     22.97 
 O(Fragment=2)         24.34     16.54     14.38 
 H(Fragment=2)         23.79     16.38     15.15 
 H(Fragment=2)         23.83     16.19     13.65 
 O(Fragment=2)         14.12     23.21     23.89 
 H(Fragment=2)         13.59     24.01     23.91 
 H(Fragment=2)         15.02     23.52     23.82 
 O(Fragment=2)         25.1      25.01     16.18 
 H(Fragment=2)         26.       24.88     16.48 
 H(Fragment=2)         24.64     24.21     16.46 
 O(Fragment=2)         17.04     27.03     17.54 
 H(Fragment=2)         17.48     26.21     17.32 
 H(Fragment=2)         16.28     27.06     16.96 
 O(Fragment=2)         13.23     23.03     17.18 
 H(Fragment=2)         14.17     23.2      17.16 
 H(Fragment=2)         12.99     23.08     18.11 
 O(Fragment=2)         22.89     23.94     13.39 
 H(Fragment=2)         23.84     23.86     13.34 
 H(Fragment=2)         22.65     23.45     14.17 
 O(Fragment=2)         23.49     13.15     21.73 
 H(Fragment=2)         23.39     13.4      20.81 
 H(Fragment=2)         22.74     13.55     22.17 
 O(Fragment=2)         27.23     17.61     17.59 
 H(Fragment=2)         26.47     17.16     17.97 
 H(Fragment=2)         27.01     17.71     16.67 
 O(Fragment=2)         20.39     26.71     16.45 
 H(Fragment=2)         20.2      27.57     16.08 
 H(Fragment=2)         20.54     26.88     17.38 
 O(Fragment=2)         25.23     21.57     14.19 
 H(Fragment=2)         25.03     20.64     14.29 
 H(Fragment=2)         24.41     22.03     14.39 
 O(Fragment=2)         19.45     15.97     26.78 
 H(Fragment=2)         19.02     15.7      25.97 
 H(Fragment=2)         19.91     15.19     27.08 
 O(Fragment=2)         14.58     26.43     20.46 
 H(Fragment=2)         15.14     25.65     20.45 
 H(Fragment=2)         14.59     26.74     19.55 
 O(Fragment=2)         22.59     14.8      15.29 
 H(Fragment=2)         21.96     14.49     14.64 
 H(Fragment=2)         23.25     14.11     15.33 
 O(Fragment=2)         27.78     20.2      18.84 
 H(Fragment=2)         27.38     19.35     18.63 
 H(Fragment=2)         27.95     20.6      17.99 
 O(Fragment=2)         20.13     17.67     12.31 
 H(Fragment=2)         19.33     17.16     12.42 
 H(Fragment=2)         20.73     17.32     12.97 
 O(Fragment=2)         26.31     23.05     23.03 
 H(Fragment=2)         26.34     24.       22.91 
 H(Fragment=2)         27.23     22.78     23. 
 O(Fragment=2)         11.67     20.67     21.08 
 H(Fragment=2)         12.41     20.08     20.95 
 H(Fragment=2)         11.98     21.52     20.76 
 O(Fragment=2)         15.53     13.48     21.1 
 H(Fragment=2)         16.46     13.33     21.29 
 H(Fragment=2)         15.45     13.4      20.15 
 O(Fragment=2)         23.67     19.4      13.26 
 H(Fragment=2)         23.48     20.01     12.55 
 H(Fragment=2)         24.1      18.66     12.84 
 O(Fragment=2)         24.85     14.15     23.75 
 H(Fragment=2)         24.42     13.71     23.02 
 H(Fragment=2)         24.91     15.07     23.48 
 O(Fragment=2)         23.34     15.18     26.25 
 H(Fragment=2)         22.79     14.45     26.54 
 H(Fragment=2)         23.17     15.25     25.31 
 O(Fragment=2)         21.73     18.91     28.52 
 H(Fragment=2)         22.37     19.58     28.76 
 H(Fragment=2)         21.67     18.97     27.56 
 O(Fragment=2)         14.73     18.8      13.88 
 H(Fragment=2)         15.59     19.05     13.55 
 H(Fragment=2)         14.4      19.59     14.31 
 O(Fragment=2)         17.99     12.63     21.97 
 H(Fragment=2)         17.47     12.02     22.48 
 H(Fragment=2)         18.7      12.1      21.61 
 O(Fragment=2)         23.39     26.96     17.27 
 H(Fragment=2)         23.57     27.07     18.2 
 H(Fragment=2)         23.93     26.21     17. 
 O(Fragment=2)         27.41     19.6      22.84 
 H(Fragment=2)         27.72     20.48     22.63 
 H(Fragment=2)         27.86     19.03     22.22 
 O(Fragment=2)         17.16     27.1      22.29 
 H(Fragment=2)         17.34     27.79     22.93 
 H(Fragment=2)         17.44     27.48     21.45 
 O(Fragment=2)         11.75     20.72     17.35 
 H(Fragment=2)         12.32     21.13     16.71 
 H(Fragment=2)         12.23     20.77     18.17 
 O(Fragment=2)         16.96     19.97     12.55 
 H(Fragment=2)         16.46     20.76     12.35 
 H(Fragment=2)         17.59     19.9      11.84 
 O(Fragment=2)         23.85     27.14     20.05 
 H(Fragment=2)         24.81     27.09     20.08 
 H(Fragment=2)         23.63     27.87     20.63 
 O(Fragment=2)         23.27     22.95     27.28 
 H(Fragment=2)         23.83     23.28     27.99 
 H(Fragment=2)         23.88     22.79     26.56 
 O(Fragment=2)         25.85     25.75     22.84 
 H(Fragment=2)         24.92     25.74     23.07 
 H(Fragment=2)         25.86     25.92     21.9 
 O(Fragment=2)         26.68     19.9      25.8 
 H(Fragment=2)         26.82     19.6      24.9 
 H(Fragment=2)         25.72     19.96     25.88 
 O(Fragment=2)         12.96     16.71     24.73 
 H(Fragment=2)         13.87     16.97     24.55 
 H(Fragment=2)         12.58     17.48     25.16 
 O(Fragment=2)         20.39     28.34     21.43 
 H(Fragment=2)         19.65     28.94     21.52 
 H(Fragment=2)         20.48     28.22     20.48 
 O(Fragment=2)         17.8      22.89     27.76 
 H(Fragment=2)         18.62     22.38     27.79 
 H(Fragment=2)         18.09     23.8      27.8 
 O(Fragment=2)         14.94     13.27     18.23 
 H(Fragment=2)         14.23     12.7      17.93 
 H(Fragment=2)         15.34     13.6      17.43 
 O(Fragment=2)         15.87     26.61     24.68 
 H(Fragment=2)         16.58     26.42     25.29 
 H(Fragment=2)         16.24     26.42     23.82 
 O(Fragment=2)         26.83     17.75     14.87 
 H(Fragment=2)         27.29     17.65     14.04 
 H(Fragment=2)         25.97     17.35     14.72 
 O(Fragment=2)         20.28     12.06     24.05 
 H(Fragment=2)         21.11     12.53     23.94 
 H(Fragment=2)         19.83     12.15     23.21 
 O(Fragment=2)         16.81     16.12     27.6 
 H(Fragment=2)         17.69     16.37     27.34 
 H(Fragment=2)         16.32     16.94     27.62 
 O(Fragment=2)         15.95     22.34     11.91 
 H(Fragment=2)         16.71     22.35     12.49 
 H(Fragment=2)         15.53     23.19     12.04 
 O(Fragment=2)         24.24     12.81     18.24 
 H(Fragment=2)         24.93     12.98     17.6 
 H(Fragment=2)         24.61     12.13     18.81 
 O(Fragment=2)         20.33     11.07     17.57 
 H(Fragment=2)         19.4      11.29     17.55 
 H(Fragment=2)         20.78     11.89     17.41 
 O(Fragment=2)         20.82     22.24     28.54 
 H(Fragment=2)         21.2      21.94     29.37 
 H(Fragment=2)         21.55     22.66     28.08 
 O(Fragment=2)         19.2      19.67     10.74 
 H(Fragment=2)         19.41     19.26     9.9 
 H(Fragment=2)         19.65     19.13     11.39 
 O(Fragment=2)         17.81     11.81     16.82 
 H(Fragment=2)         17.25     11.09     17.14 
 H(Fragment=2)         17.2      12.52     16.64 
 O(Fragment=2)         21.75     26.79     13.64 
 H(Fragment=2)         21.98     25.89     13.87 
 H(Fragment=2)         20.81     26.85     13.79 
 O(Fragment=2)         12.15     14.38     20.88 
 H(Fragment=2)         11.44     14.46     20.25 
 H(Fragment=2)         12.83     14.97     20.55 
 O(Fragment=2)         13.41     25.25     15.52 
 H(Fragment=2)         12.52     25.56     15.67 
 H(Fragment=2)         13.5      24.49     16.1 
 O(Fragment=2)         27.82     20.74     16.01 
 H(Fragment=2)         28.73     20.6      16.28 
 H(Fragment=2)         27.66     20.07     15.35 
 O(Fragment=2)         20.03     11.21     20.77 
 H(Fragment=2)         20.18     10.89     19.88 
 H(Fragment=2)         20.35     10.52     21.34 
 O(Fragment=2)         12.62     21.87     25.96 
 H(Fragment=2)         13.34     22.15     25.4 
 H(Fragment=2)         11.83     22.2      25.53 
 O(Fragment=2)         19.22     24.27     11.47 
 H(Fragment=2)         19.18     24.11     10.52 
 H(Fragment=2)         19.34     23.4      11.85 
 O(Fragment=2)         13.46     15.21     15.24 
 H(Fragment=2)         12.6      14.88     15. 
 H(Fragment=2)         13.32     15.64     16.09 
 O(Fragment=2)         15.21     18.9      27.67 
 H(Fragment=2)         15.68     19.72     27.81 
 H(Fragment=2)         14.46     18.96     28.27 
 O(Fragment=2)         12.23     25.12     21.26 
 H(Fragment=2)         12.95     25.47     20.74 
 H(Fragment=2)         12.42     25.4      22.15 
 O(Fragment=2)         19.89     25.22     27.29 
 H(Fragment=2)         20.17     26.01     26.83 
 H(Fragment=2)         20.43     25.2      28.08 
 O(Fragment=2)         17.84     28.72     20.04 
 H(Fragment=2)         16.98     28.66     19.62 
 H(Fragment=2)         18.1      29.64     19.93 
 O(Fragment=2)         22.18     20.96     11.31 
 H(Fragment=2)         22.76     21.71     11.15 
 H(Fragment=2)         21.4      21.14     10.78 
 O(Fragment=2)         20.31     27.63     25.93 
 H(Fragment=2)         20.5      27.53     25. 
 H(Fragment=2)         20.08     28.56     26.02 
 O(Fragment=2)         15.44     13.44     15.43 
 H(Fragment=2)         14.91     14.21     15.21 
 H(Fragment=2)         15.34     12.85     14.69 
 O(Fragment=2)         14.78     14.58     26.14 
 H(Fragment=2)         15.57     15.1      26.27 
 H(Fragment=2)         14.14     15.21     25.79 
 O(Fragment=2)         26.47     26.43     20.19 
 H(Fragment=2)         26.82     26.01     19.4 
 H(Fragment=2)         27.11     27.11     20.41 
 O(Fragment=2)         22.51     16.2      11.99 
 H(Fragment=2)         22.38     15.4      11.47 
 H(Fragment=2)         21.86     16.81     11.64 
 O(Fragment=2)         20.77     13.53     13.57 
 H(Fragment=2)         21.07     12.86     12.96 
 H(Fragment=2)         19.9      13.24     13.85 
 O(Fragment=2)         16.33     21.02     28.85 
 H(Fragment=2)         15.64     21.54     29.26 
 H(Fragment=2)         16.92     21.66     28.47 
 
 NAtoms=    385 NQM=      385 NQMF=       0 NMMI=      0 NMMIF=      0
                NMic=       0 NMicF=      0.
                    Isotopes and Nuclear Properties:
 (Nuclear quadrupole moments (NQMom) in fm**2, nuclear magnetic moments (NMagM)
  in nuclear magnetons)

  Atom         1           2           3           4           5           6           7           8           9          10
 IAtWgt=          79          16           1           1          16           1           1          16           1           1
 AtmWgt=  78.9183361  15.9949146   1.0078250   1.0078250  15.9949146   1.0078250   1.0078250  15.9949146   1.0078250   1.0078250
 NucSpn=           3           0           1           1           0           1           1           0           1           1
 AtZEff=   0.0000000   0.0000000   0.0000000   0.0000000   0.0000000   0.0000000   0.0000000   0.0000000   0.0000000   0.0000000
 NQMom=   31.3000000   0.0000000   0.0000000   0.0000000   0.0000000   0.0000000   0.0000000   0.0000000   0.0000000   0.0000000
 NMagM=    2.1063990   0.0000000   2.7928460   2.7928460   0.0000000   2.7928460   2.7928460   0.0000000   2.7928460   2.7928460
 AtZNuc=  35.0000000   8.0000000   1.0000000   1.0000000   8.0000000   1.0000000   1.0000000   8.0000000   1.0000000   1.0000000

  Atom        11          12          13          14          15          16          17          18          19          20
 IAtWgt=          16           1           1          16           1           1          16           1           1          16
 AtmWgt=  15.9949146   1.0078250   1.0078250  15.9949146   1.0078250   1.0078250  15.9949146   1.0078250   1.0078250  15.9949146
 NucSpn=           0           1           1           0           1           1           0           1           1           0
 AtZEff=   0.0000000   0.0000000   0.0000000   0.0000000   0.0000000   0.0000000   0.0000000   0.0000000   0.0000000   0.0000000
 NQMom=    0.0000000   0.0000000   0.0000000   0.0000000   0.0000000   0.0000000   0.0000000   0.0000000   0.0000000   0.0000000
 NMagM=    0.0000000   2.7928460   2.7928460   0.0000000   2.7928460   2.7928460   0.0000000   2.7928460   2.7928460   0.0000000
 AtZNuc=   8.0000000   1.0000000   1.0000000   8.0000000   1.0000000   1.0000000   8.0000000   1.0000000   1.0000000   8.0000000

  Atom        21          22          23          24          25          26          27          28          29          30
 IAtWgt=           1           1          16           1           1          16           1           1          16           1
 AtmWgt=   1.0078250   1.0078250  15.9949146   1.0078250   1.0078250  15.9949146   1.0078250   1.0078250  15.9949146   1.0078250
 NucSpn=           1           1           0           1           1           0           1           1           0           1
 AtZEff=   0.0000000   0.0000000   0.0000000   0.0000000   0.0000000   0.0000000   0.0000000   0.0000000   0.0000000   0.0000000
 NQMom=    0.0000000   0.0000000   0.0000000   0.0000000   0.0000000   0.0000000   0.0000000   0.0000000   0.0000000   0.0000000
 NMagM=    2.7928460   2.7928460   0.0000000   2.7928460   2.7928460   0.0000000   2.7928460   2.7928460   0.0000000   2.7928460
 AtZNuc=   1.0000000   1.0000000   8.0000000   1.0000000   1.0000000   8.0000000   1.0000000   1.0000000   8.0000000   1.0000000

  Atom        31          32          33          34          35          36          37          38          39          40
 IAtWgt=           1          16           1           1          16           1           1          16           1           1
 AtmWgt=   1.0078250  15.9949146   1.0078250   1.0078250  15.9949146   1.0078250   1.0078250  15.9949146   1.0078250   1.0078250
 NucSpn=           1           0           1           1           0           1           1           0           1           1
 AtZEff=   0.0000000   0.0000000   0.0000000   0.0000000   0.0000000   0.0000000   0.0000000   0.0000000   0.0000000   0.0000000
 NQMom=    0.0000000   0.0000000   0.0000000   0.0000000   0.0000000   0.0000000   0.0000000   0.0000000   0.0000000   0.0000000
 NMagM=    2.7928460   0.0000000   2.7928460   2.7928460   0.0000000   2.7928460   2.7928460   0.0000000   2.7928460   2.7928460
 AtZNuc=   1.0000000   8.0000000   1.0000000   1.0000000   8.0000000   1.0000000   1.0000000   8.0000000   1.0000000   1.0000000

  Atom        41          42          43          44          45          46          47          48          49          50
 IAtWgt=          16           1           1          16           1           1          16           1           1          16
 AtmWgt=  15.9949146   1.0078250   1.0078250  15.9949146   1.0078250   1.0078250  15.9949146   1.0078250   1.0078250  15.9949146
 NucSpn=           0           1           1           0           1           1           0           1           1           0
 AtZEff=   0.0000000   0.0000000   0.0000000   0.0000000   0.0000000   0.0000000   0.0000000   0.0000000   0.0000000   0.0000000
 NQMom=    0.0000000   0.0000000   0.0000000   0.0000000   0.0000000   0.0000000   0.0000000   0.0000000   0.0000000   0.0000000
 NMagM=    0.0000000   2.7928460   2.7928460   0.0000000   2.7928460   2.7928460   0.0000000   2.7928460   2.7928460   0.0000000
 AtZNuc=   8.0000000   1.0000000   1.0000000   8.0000000   1.0000000   1.0000000   8.0000000   1.0000000   1.0000000   8.0000000

  Atom        51          52          53          54          55          56          57          58          59          60
 IAtWgt=           1           1          16           1           1          16           1           1          16           1
 AtmWgt=   1.0078250   1.0078250  15.9949146   1.0078250   1.0078250  15.9949146   1.0078250   1.0078250  15.9949146   1.0078250
 NucSpn=           1           1           0           1           1           0           1           1           0           1
 AtZEff=   0.0000000   0.0000000   0.0000000   0.0000000   0.0000000   0.0000000   0.0000000   0.0000000   0.0000000   0.0000000
 NQMom=    0.0000000   0.0000000   0.0000000   0.0000000   0.0000000   0.0000000   0.0000000   0.0000000   0.0000000   0.0000000
 NMagM=    2.7928460   2.7928460   0.0000000   2.7928460   2.7928460   0.0000000   2.7928460   2.7928460   0.0000000   2.7928460
 AtZNuc=   1.0000000   1.0000000   8.0000000   1.0000000   1.0000000   8.0000000   1.0000000   1.0000000   8.0000000   1.0000000

  Atom        61          62          63          64          65          66          67          68          69          70
 IAtWgt=           1          16           1           1          16           1           1          16           1           1
 AtmWgt=   1.0078250  15.9949146   1.0078250   1.0078250  15.9949146   1.0078250   1.0078250  15.9949146   1.0078250   1.0078250
 NucSpn=           1           0           1           1           0           1           1           0           1           1
 AtZEff=   0.0000000   0.0000000   0.0000000   0.0000000   0.0000000   0.0000000   0.0000000   0.0000000   0.0000000   0.0000000
 NQMom=    0.0000000   0.0000000   0.0000000   0.0000000   0.0000000   0.0000000   0.0000000   0.0000000   0.0000000   0.0000000
 NMagM=    2.7928460   0.0000000   2.7928460   2.7928460   0.0000000   2.7928460   2.7928460   0.0000000   2.7928460   2.7928460
 AtZNuc=   1.0000000   8.0000000   1.0000000   1.0000000   8.0000000   1.0000000   1.0000000   8.0000000   1.0000000   1.0000000

  Atom        71          72          73          74          75          76          77          78          79          80
 IAtWgt=          16           1           1          16           1           1          16           1           1          16
 AtmWgt=  15.9949146   1.0078250   1.0078250  15.9949146   1.0078250   1.0078250  15.9949146   1.0078250   1.0078250  15.9949146
 NucSpn=           0           1           1           0           1           1           0           1           1           0
 AtZEff=   0.0000000   0.0000000   0.0000000   0.0000000   0.0000000   0.0000000   0.0000000   0.0000000   0.0000000   0.0000000
 NQMom=    0.0000000   0.0000000   0.0000000   0.0000000   0.0000000   0.0000000   0.0000000   0.0000000   0.0000000   0.0000000
 NMagM=    0.0000000   2.7928460   2.7928460   0.0000000   2.7928460   2.7928460   0.0000000   2.7928460   2.7928460   0.0000000
 AtZNuc=   8.0000000   1.0000000   1.0000000   8.0000000   1.0000000   1.0000000   8.0000000   1.0000000   1.0000000   8.0000000

  Atom        81          82          83          84          85          86          87          88          89          90
 IAtWgt=           1           1          16           1           1          16           1           1          16           1
 AtmWgt=   1.0078250   1.0078250  15.9949146   1.0078250   1.0078250  15.9949146   1.0078250   1.0078250  15.9949146   1.0078250
 NucSpn=           1           1           0           1           1           0           1           1           0           1
 AtZEff=   0.0000000   0.0000000   0.0000000   0.0000000   0.0000000   0.0000000   0.0000000   0.0000000   0.0000000   0.0000000
 NQMom=    0.0000000   0.0000000   0.0000000   0.0000000   0.0000000   0.0000000   0.0000000   0.0000000   0.0000000   0.0000000
 NMagM=    2.7928460   2.7928460   0.0000000   2.7928460   2.7928460   0.0000000   2.7928460   2.7928460   0.0000000   2.7928460
 AtZNuc=   1.0000000   1.0000000   8.0000000   1.0000000   1.0000000   8.0000000   1.0000000   1.0000000   8.0000000   1.0000000

  Atom        91          92          93          94          95          96          97          98          99         100
 IAtWgt=           1          16           1           1          16           1           1          16           1           1
 AtmWgt=   1.0078250  15.9949146   1.0078250   1.0078250  15.9949146   1.0078250   1.0078250  15.9949146   1.0078250   1.0078250
 NucSpn=           1           0           1           1           0           1           1           0           1           1
 AtZEff=   0.0000000   0.0000000   0.0000000   0.0000000   0.0000000   0.0000000   0.0000000   0.0000000   0.0000000   0.0000000
 NQMom=    0.0000000   0.0000000   0.0000000   0.0000000   0.0000000   0.0000000   0.0000000   0.0000000   0.0000000   0.0000000
 NMagM=    2.7928460   0.0000000   2.7928460   2.7928460   0.0000000   2.7928460   2.7928460   0.0000000   2.7928460   2.7928460
 AtZNuc=   1.0000000   8.0000000   1.0000000   1.0000000   8.0000000   1.0000000   1.0000000   8.0000000   1.0000000   1.0000000

  Atom       101         102         103         104         105         106         107         108         109         110
 IAtWgt=          16           1           1          16           1           1          16           1           1          16
 AtmWgt=  15.9949146   1.0078250   1.0078250  15.9949146   1.0078250   1.0078250  15.9949146   1.0078250   1.0078250  15.9949146
 NucSpn=           0           1           1           0           1           1           0           1           1           0
 AtZEff=   0.0000000   0.0000000   0.0000000   0.0000000   0.0000000   0.0000000   0.0000000   0.0000000   0.0000000   0.0000000
 NQMom=    0.0000000   0.0000000   0.0000000   0.0000000   0.0000000   0.0000000   0.0000000   0.0000000   0.0000000   0.0000000
 NMagM=    0.0000000   2.7928460   2.7928460   0.0000000   2.7928460   2.7928460   0.0000000   2.7928460   2.7928460   0.0000000
 AtZNuc=   8.0000000   1.0000000   1.0000000   8.0000000   1.0000000   1.0000000   8.0000000   1.0000000   1.0000000   8.0000000

  Atom       111         112         113         114         115         116         117         118         119         120
 IAtWgt=           1           1          16           1           1          16           1           1          16           1
 AtmWgt=   1.0078250   1.0078250  15.9949146   1.0078250   1.0078250  15.9949146   1.0078250   1.0078250  15.9949146   1.0078250
 NucSpn=           1           1           0           1           1           0           1           1           0           1
 AtZEff=   0.0000000   0.0000000   0.0000000   0.0000000   0.0000000   0.0000000   0.0000000   0.0000000   0.0000000   0.0000000
 NQMom=    0.0000000   0.0000000   0.0000000   0.0000000   0.0000000   0.0000000   0.0000000   0.0000000   0.0000000   0.0000000
 NMagM=    2.7928460   2.7928460   0.0000000   2.7928460   2.7928460   0.0000000   2.7928460   2.7928460   0.0000000   2.7928460
 AtZNuc=   1.0000000   1.0000000   8.0000000   1.0000000   1.0000000   8.0000000   1.0000000   1.0000000   8.0000000   1.0000000

  Atom       121         122         123         124         125         126         127         128         129         130
 IAtWgt=           1          16           1           1          16           1           1          16           1           1
 AtmWgt=   1.0078250  15.9949146   1.0078250   1.0078250  15.9949146   1.0078250   1.0078250  15.9949146   1.0078250   1.0078250
 NucSpn=           1           0           1           1           0           1           1           0           1           1
 AtZEff=   0.0000000   0.0000000   0.0000000   0.0000000   0.0000000   0.0000000   0.0000000   0.0000000   0.0000000   0.0000000
 NQMom=    0.0000000   0.0000000   0.0000000   0.0000000   0.0000000   0.0000000   0.0000000   0.0000000   0.0000000   0.0000000
 NMagM=    2.7928460   0.0000000   2.7928460   2.7928460   0.0000000   2.7928460   2.7928460   0.0000000   2.7928460   2.7928460
 AtZNuc=   1.0000000   8.0000000   1.0000000   1.0000000   8.0000000   1.0000000   1.0000000   8.0000000   1.0000000   1.0000000

  Atom       131         132         133         134         135         136         137         138         139         140
 IAtWgt=          16           1           1          16           1           1          16           1           1          16
 AtmWgt=  15.9949146   1.0078250   1.0078250  15.9949146   1.0078250   1.0078250  15.9949146   1.0078250   1.0078250  15.9949146
 NucSpn=           0           1           1           0           1           1           0           1           1           0
 AtZEff=   0.0000000   0.0000000   0.0000000   0.0000000   0.0000000   0.0000000   0.0000000   0.0000000   0.0000000   0.0000000
 NQMom=    0.0000000   0.0000000   0.0000000   0.0000000   0.0000000   0.0000000   0.0000000   0.0000000   0.0000000   0.0000000
 NMagM=    0.0000000   2.7928460   2.7928460   0.0000000   2.7928460   2.7928460   0.0000000   2.7928460   2.7928460   0.0000000
 AtZNuc=   8.0000000   1.0000000   1.0000000   8.0000000   1.0000000   1.0000000   8.0000000   1.0000000   1.0000000   8.0000000

  Atom       141         142         143         144         145         146         147         148         149         150
 IAtWgt=           1           1          16           1           1          16           1           1          16           1
 AtmWgt=   1.0078250   1.0078250  15.9949146   1.0078250   1.0078250  15.9949146   1.0078250   1.0078250  15.9949146   1.0078250
 NucSpn=           1           1           0           1           1           0           1           1           0           1
 AtZEff=   0.0000000   0.0000000   0.0000000   0.0000000   0.0000000   0.0000000   0.0000000   0.0000000   0.0000000   0.0000000
 NQMom=    0.0000000   0.0000000   0.0000000   0.0000000   0.0000000   0.0000000   0.0000000   0.0000000   0.0000000   0.0000000
 NMagM=    2.7928460   2.7928460   0.0000000   2.7928460   2.7928460   0.0000000   2.7928460   2.7928460   0.0000000   2.7928460
 AtZNuc=   1.0000000   1.0000000   8.0000000   1.0000000   1.0000000   8.0000000   1.0000000   1.0000000   8.0000000   1.0000000

  Atom       151         152         153         154         155         156         157         158         159         160
 IAtWgt=           1          16           1           1          16           1           1          16           1           1
 AtmWgt=   1.0078250  15.9949146   1.0078250   1.0078250  15.9949146   1.0078250   1.0078250  15.9949146   1.0078250   1.0078250
 NucSpn=           1           0           1           1           0           1           1           0           1           1
 AtZEff=   0.0000000   0.0000000   0.0000000   0.0000000   0.0000000   0.0000000   0.0000000   0.0000000   0.0000000   0.0000000
 NQMom=    0.0000000   0.0000000   0.0000000   0.0000000   0.0000000   0.0000000   0.0000000   0.0000000   0.0000000   0.0000000
 NMagM=    2.7928460   0.0000000   2.7928460   2.7928460   0.0000000   2.7928460   2.7928460   0.0000000   2.7928460   2.7928460
 AtZNuc=   1.0000000   8.0000000   1.0000000   1.0000000   8.0000000   1.0000000   1.0000000   8.0000000   1.0000000   1.0000000

  Atom       161         162         163         164         165         166         167         168         169         170
 IAtWgt=          16           1           1          16           1           1          16           1           1          16
 AtmWgt=  15.9949146   1.0078250   1.0078250  15.9949146   1.0078250   1.0078250  15.9949146   1.0078250   1.0078250  15.9949146
 NucSpn=           0           1           1           0           1           1           0           1           1           0
 AtZEff=   0.0000000   0.0000000   0.0000000   0.0000000   0.0000000   0.0000000   0.0000000   0.0000000   0.0000000   0.0000000
 NQMom=    0.0000000   0.0000000   0.0000000   0.0000000   0.0000000   0.0000000   0.0000000   0.0000000   0.0000000   0.0000000
 NMagM=    0.0000000   2.7928460   2.7928460   0.0000000   2.7928460   2.7928460   0.0000000   2.7928460   2.7928460   0.0000000
 AtZNuc=   8.0000000   1.0000000   1.0000000   8.0000000   1.0000000   1.0000000   8.0000000   1.0000000   1.0000000   8.0000000

  Atom       171         172         173         174         175         176         177         178         179         180
 IAtWgt=           1           1          16           1           1          16           1           1          16           1
 AtmWgt=   1.0078250   1.0078250  15.9949146   1.0078250   1.0078250  15.9949146   1.0078250   1.0078250  15.9949146   1.0078250
 NucSpn=           1           1           0           1           1           0           1           1           0           1
 AtZEff=   0.0000000   0.0000000   0.0000000   0.0000000   0.0000000   0.0000000   0.0000000   0.0000000   0.0000000   0.0000000
 NQMom=    0.0000000   0.0000000   0.0000000   0.0000000   0.0000000   0.0000000   0.0000000   0.0000000   0.0000000   0.0000000
 NMagM=    2.7928460   2.7928460   0.0000000   2.7928460   2.7928460   0.0000000   2.7928460   2.7928460   0.0000000   2.7928460
 AtZNuc=   1.0000000   1.0000000   8.0000000   1.0000000   1.0000000   8.0000000   1.0000000   1.0000000   8.0000000   1.0000000

  Atom       181         182         183         184         185         186         187         188         189         190
 IAtWgt=           1          16           1           1          16           1           1          16           1           1
 AtmWgt=   1.0078250  15.9949146   1.0078250   1.0078250  15.9949146   1.0078250   1.0078250  15.9949146   1.0078250   1.0078250
 NucSpn=           1           0           1           1           0           1           1           0           1           1
 AtZEff=   0.0000000   0.0000000   0.0000000   0.0000000   0.0000000   0.0000000   0.0000000   0.0000000   0.0000000   0.0000000
 NQMom=    0.0000000   0.0000000   0.0000000   0.0000000   0.0000000   0.0000000   0.0000000   0.0000000   0.0000000   0.0000000
 NMagM=    2.7928460   0.0000000   2.7928460   2.7928460   0.0000000   2.7928460   2.7928460   0.0000000   2.7928460   2.7928460
 AtZNuc=   1.0000000   8.0000000   1.0000000   1.0000000   8.0000000   1.0000000   1.0000000   8.0000000   1.0000000   1.0000000

  Atom       191         192         193         194         195         196         197         198         199         200
 IAtWgt=          16           1           1          16           1           1          16           1           1          16
 AtmWgt=  15.9949146   1.0078250   1.0078250  15.9949146   1.0078250   1.0078250  15.9949146   1.0078250   1.0078250  15.9949146
 NucSpn=           0           1           1           0           1           1           0           1           1           0
 AtZEff=   0.0000000   0.0000000   0.0000000   0.0000000   0.0000000   0.0000000   0.0000000   0.0000000   0.0000000   0.0000000
 NQMom=    0.0000000   0.0000000   0.0000000   0.0000000   0.0000000   0.0000000   0.0000000   0.0000000   0.0000000   0.0000000
 NMagM=    0.0000000   2.7928460   2.7928460   0.0000000   2.7928460   2.7928460   0.0000000   2.7928460   2.7928460   0.0000000
 AtZNuc=   8.0000000   1.0000000   1.0000000   8.0000000   1.0000000   1.0000000   8.0000000   1.0000000   1.0000000   8.0000000

  Atom       201         202         203         204         205         206         207         208         209         210
 IAtWgt=           1           1          16           1           1          16           1           1          16           1
 AtmWgt=   1.0078250   1.0078250  15.9949146   1.0078250   1.0078250  15.9949146   1.0078250   1.0078250  15.9949146   1.0078250
 NucSpn=           1           1           0           1           1           0           1           1           0           1
 AtZEff=   0.0000000   0.0000000   0.0000000   0.0000000   0.0000000   0.0000000   0.0000000   0.0000000   0.0000000   0.0000000
 NQMom=    0.0000000   0.0000000   0.0000000   0.0000000   0.0000000   0.0000000   0.0000000   0.0000000   0.0000000   0.0000000
 NMagM=    2.7928460   2.7928460   0.0000000   2.7928460   2.7928460   0.0000000   2.7928460   2.7928460   0.0000000   2.7928460
 AtZNuc=   1.0000000   1.0000000   8.0000000   1.0000000   1.0000000   8.0000000   1.0000000   1.0000000   8.0000000   1.0000000

  Atom       211         212         213         214         215         216         217         218         219         220
 IAtWgt=           1          16           1           1          16           1           1          16           1           1
 AtmWgt=   1.0078250  15.9949146   1.0078250   1.0078250  15.9949146   1.0078250   1.0078250  15.9949146   1.0078250   1.0078250
 NucSpn=           1           0           1           1           0           1           1           0           1           1
 AtZEff=   0.0000000   0.0000000   0.0000000   0.0000000   0.0000000   0.0000000   0.0000000   0.0000000   0.0000000   0.0000000
 NQMom=    0.0000000   0.0000000   0.0000000   0.0000000   0.0000000   0.0000000   0.0000000   0.0000000   0.0000000   0.0000000
 NMagM=    2.7928460   0.0000000   2.7928460   2.7928460   0.0000000   2.7928460   2.7928460   0.0000000   2.7928460   2.7928460
 AtZNuc=   1.0000000   8.0000000   1.0000000   1.0000000   8.0000000   1.0000000   1.0000000   8.0000000   1.0000000   1.0000000

  Atom       221         222         223         224         225         226         227         228         229         230
 IAtWgt=          16           1           1          16           1           1          16           1           1          16
 AtmWgt=  15.9949146   1.0078250   1.0078250  15.9949146   1.0078250   1.0078250  15.9949146   1.0078250   1.0078250  15.9949146
 NucSpn=           0           1           1           0           1           1           0           1           1           0
 AtZEff=   0.0000000   0.0000000   0.0000000   0.0000000   0.0000000   0.0000000   0.0000000   0.0000000   0.0000000   0.0000000
 NQMom=    0.0000000   0.0000000   0.0000000   0.0000000   0.0000000   0.0000000   0.0000000   0.0000000   0.0000000   0.0000000
 NMagM=    0.0000000   2.7928460   2.7928460   0.0000000   2.7928460   2.7928460   0.0000000   2.7928460   2.7928460   0.0000000
 AtZNuc=   8.0000000   1.0000000   1.0000000   8.0000000   1.0000000   1.0000000   8.0000000   1.0000000   1.0000000   8.0000000

  Atom       231         232         233         234         235         236         237         238         239         240
 IAtWgt=           1           1          16           1           1          16           1           1          16           1
 AtmWgt=   1.0078250   1.0078250  15.9949146   1.0078250   1.0078250  15.9949146   1.0078250   1.0078250  15.9949146   1.0078250
 NucSpn=           1           1           0           1           1           0           1           1           0           1
 AtZEff=   0.0000000   0.0000000   0.0000000   0.0000000   0.0000000   0.0000000   0.0000000   0.0000000   0.0000000   0.0000000
 NQMom=    0.0000000   0.0000000   0.0000000   0.0000000   0.0000000   0.0000000   0.0000000   0.0000000   0.0000000   0.0000000
 NMagM=    2.7928460   2.7928460   0.0000000   2.7928460   2.7928460   0.0000000   2.7928460   2.7928460   0.0000000   2.7928460
 AtZNuc=   1.0000000   1.0000000   8.0000000   1.0000000   1.0000000   8.0000000   1.0000000   1.0000000   8.0000000   1.0000000

  Atom       241         242         243         244         245         246         247         248         249         250
 IAtWgt=           1          16           1           1          16           1           1          16           1           1
 AtmWgt=   1.0078250  15.9949146   1.0078250   1.0078250  15.9949146   1.0078250   1.0078250  15.9949146   1.0078250   1.0078250
 NucSpn=           1           0           1           1           0           1           1           0           1           1
 AtZEff=   0.0000000   0.0000000   0.0000000   0.0000000   0.0000000   0.0000000   0.0000000   0.0000000   0.0000000   0.0000000
 NQMom=    0.0000000   0.0000000   0.0000000   0.0000000   0.0000000   0.0000000   0.0000000   0.0000000   0.0000000   0.0000000
 NMagM=    2.7928460   0.0000000   2.7928460   2.7928460   0.0000000   2.7928460   2.7928460   0.0000000   2.7928460   2.7928460
 AtZNuc=   1.0000000   8.0000000   1.0000000   1.0000000   8.0000000   1.0000000   1.0000000   8.0000000   1.0000000   1.0000000

  Atom       251         252         253         254         255         256         257         258         259         260
 IAtWgt=          16           1           1          16           1           1          16           1           1          16
 AtmWgt=  15.9949146   1.0078250   1.0078250  15.9949146   1.0078250   1.0078250  15.9949146   1.0078250   1.0078250  15.9949146
 NucSpn=           0           1           1           0           1           1           0           1           1           0
 AtZEff=   0.0000000   0.0000000   0.0000000   0.0000000   0.0000000   0.0000000   0.0000000   0.0000000   0.0000000   0.0000000
 NQMom=    0.0000000   0.0000000   0.0000000   0.0000000   0.0000000   0.0000000   0.0000000   0.0000000   0.0000000   0.0000000
 NMagM=    0.0000000   2.7928460   2.7928460   0.0000000   2.7928460   2.7928460   0.0000000   2.7928460   2.7928460   0.0000000
 AtZNuc=   8.0000000   1.0000000   1.0000000   8.0000000   1.0000000   1.0000000   8.0000000   1.0000000   1.0000000   8.0000000

  Atom       261         262         263         264         265         266         267         268         269         270
 IAtWgt=           1           1          16           1           1          16           1           1          16           1
 AtmWgt=   1.0078250   1.0078250  15.9949146   1.0078250   1.0078250  15.9949146   1.0078250   1.0078250  15.9949146   1.0078250
 NucSpn=           1           1           0           1           1           0           1           1           0           1
 AtZEff=   0.0000000   0.0000000   0.0000000   0.0000000   0.0000000   0.0000000   0.0000000   0.0000000   0.0000000   0.0000000
 NQMom=    0.0000000   0.0000000   0.0000000   0.0000000   0.0000000   0.0000000   0.0000000   0.0000000   0.0000000   0.0000000
 NMagM=    2.7928460   2.7928460   0.0000000   2.7928460   2.7928460   0.0000000   2.7928460   2.7928460   0.0000000   2.7928460
 AtZNuc=   1.0000000   1.0000000   8.0000000   1.0000000   1.0000000   8.0000000   1.0000000   1.0000000   8.0000000   1.0000000

  Atom       271         272         273         274         275         276         277         278         279         280
 IAtWgt=           1          16           1           1          16           1           1          16           1           1
 AtmWgt=   1.0078250  15.9949146   1.0078250   1.0078250  15.9949146   1.0078250   1.0078250  15.9949146   1.0078250   1.0078250
 NucSpn=           1           0           1           1           0           1           1           0           1           1
 AtZEff=   0.0000000   0.0000000   0.0000000   0.0000000   0.0000000   0.0000000   0.0000000   0.0000000   0.0000000   0.0000000
 NQMom=    0.0000000   0.0000000   0.0000000   0.0000000   0.0000000   0.0000000   0.0000000   0.0000000   0.0000000   0.0000000
 NMagM=    2.7928460   0.0000000   2.7928460   2.7928460   0.0000000   2.7928460   2.7928460   0.0000000   2.7928460   2.7928460
 AtZNuc=   1.0000000   8.0000000   1.0000000   1.0000000   8.0000000   1.0000000   1.0000000   8.0000000   1.0000000   1.0000000

  Atom       281         282         283         284         285         286         287         288         289         290
 IAtWgt=          16           1           1          16           1           1          16           1           1          16
 AtmWgt=  15.9949146   1.0078250   1.0078250  15.9949146   1.0078250   1.0078250  15.9949146   1.0078250   1.0078250  15.9949146
 NucSpn=           0           1           1           0           1           1           0           1           1           0
 AtZEff=   0.0000000   0.0000000   0.0000000   0.0000000   0.0000000   0.0000000   0.0000000   0.0000000   0.0000000   0.0000000
 NQMom=    0.0000000   0.0000000   0.0000000   0.0000000   0.0000000   0.0000000   0.0000000   0.0000000   0.0000000   0.0000000
 NMagM=    0.0000000   2.7928460   2.7928460   0.0000000   2.7928460   2.7928460   0.0000000   2.7928460   2.7928460   0.0000000
 AtZNuc=   8.0000000   1.0000000   1.0000000   8.0000000   1.0000000   1.0000000   8.0000000   1.0000000   1.0000000   8.0000000

  Atom       291         292         293         294         295         296         297         298         299         300
 IAtWgt=           1           1          16           1           1          16           1           1          16           1
 AtmWgt=   1.0078250   1.0078250  15.9949146   1.0078250   1.0078250  15.9949146   1.0078250   1.0078250  15.9949146   1.0078250
 NucSpn=           1           1           0           1           1           0           1           1           0           1
 AtZEff=   0.0000000   0.0000000   0.0000000   0.0000000   0.0000000   0.0000000   0.0000000   0.0000000   0.0000000   0.0000000
 NQMom=    0.0000000   0.0000000   0.0000000   0.0000000   0.0000000   0.0000000   0.0000000   0.0000000   0.0000000   0.0000000
 NMagM=    2.7928460   2.7928460   0.0000000   2.7928460   2.7928460   0.0000000   2.7928460   2.7928460   0.0000000   2.7928460
 AtZNuc=   1.0000000   1.0000000   8.0000000   1.0000000   1.0000000   8.0000000   1.0000000   1.0000000   8.0000000   1.0000000

  Atom       301         302         303         304         305         306         307         308         309         310
 IAtWgt=           1          16           1           1          16           1           1          16           1           1
 AtmWgt=   1.0078250  15.9949146   1.0078250   1.0078250  15.9949146   1.0078250   1.0078250  15.9949146   1.0078250   1.0078250
 NucSpn=           1           0           1           1           0           1           1           0           1           1
 AtZEff=   0.0000000   0.0000000   0.0000000   0.0000000   0.0000000   0.0000000   0.0000000   0.0000000   0.0000000   0.0000000
 NQMom=    0.0000000   0.0000000   0.0000000   0.0000000   0.0000000   0.0000000   0.0000000   0.0000000   0.0000000   0.0000000
 NMagM=    2.7928460   0.0000000   2.7928460   2.7928460   0.0000000   2.7928460   2.7928460   0.0000000   2.7928460   2.7928460
 AtZNuc=   1.0000000   8.0000000   1.0000000   1.0000000   8.0000000   1.0000000   1.0000000   8.0000000   1.0000000   1.0000000

  Atom       311         312         313         314         315         316         317         318         319         320
 IAtWgt=          16           1           1          16           1           1          16           1           1          16
 AtmWgt=  15.9949146   1.0078250   1.0078250  15.9949146   1.0078250   1.0078250  15.9949146   1.0078250   1.0078250  15.9949146
 NucSpn=           0           1           1           0           1           1           0           1           1           0
 AtZEff=   0.0000000   0.0000000   0.0000000   0.0000000   0.0000000   0.0000000   0.0000000   0.0000000   0.0000000   0.0000000
 NQMom=    0.0000000   0.0000000   0.0000000   0.0000000   0.0000000   0.0000000   0.0000000   0.0000000   0.0000000   0.0000000
 NMagM=    0.0000000   2.7928460   2.7928460   0.0000000   2.7928460   2.7928460   0.0000000   2.7928460   2.7928460   0.0000000
 AtZNuc=   8.0000000   1.0000000   1.0000000   8.0000000   1.0000000   1.0000000   8.0000000   1.0000000   1.0000000   8.0000000

  Atom       321         322         323         324         325         326         327         328         329         330
 IAtWgt=           1           1          16           1           1          16           1           1          16           1
 AtmWgt=   1.0078250   1.0078250  15.9949146   1.0078250   1.0078250  15.9949146   1.0078250   1.0078250  15.9949146   1.0078250
 NucSpn=           1           1           0           1           1           0           1           1           0           1
 AtZEff=   0.0000000   0.0000000   0.0000000   0.0000000   0.0000000   0.0000000   0.0000000   0.0000000   0.0000000   0.0000000
 NQMom=    0.0000000   0.0000000   0.0000000   0.0000000   0.0000000   0.0000000   0.0000000   0.0000000   0.0000000   0.0000000
 NMagM=    2.7928460   2.7928460   0.0000000   2.7928460   2.7928460   0.0000000   2.7928460   2.7928460   0.0000000   2.7928460
 AtZNuc=   1.0000000   1.0000000   8.0000000   1.0000000   1.0000000   8.0000000   1.0000000   1.0000000   8.0000000   1.0000000

  Atom       331         332         333         334         335         336         337         338         339         340
 IAtWgt=           1          16           1           1          16           1           1          16           1           1
 AtmWgt=   1.0078250  15.9949146   1.0078250   1.0078250  15.9949146   1.0078250   1.0078250  15.9949146   1.0078250   1.0078250
 NucSpn=           1           0           1           1           0           1           1           0           1           1
 AtZEff=   0.0000000   0.0000000   0.0000000   0.0000000   0.0000000   0.0000000   0.0000000   0.0000000   0.0000000   0.0000000
 NQMom=    0.0000000   0.0000000   0.0000000   0.0000000   0.0000000   0.0000000   0.0000000   0.0000000   0.0000000   0.0000000
 NMagM=    2.7928460   0.0000000   2.7928460   2.7928460   0.0000000   2.7928460   2.7928460   0.0000000   2.7928460   2.7928460
 AtZNuc=   1.0000000   8.0000000   1.0000000   1.0000000   8.0000000   1.0000000   1.0000000   8.0000000   1.0000000   1.0000000

  Atom       341         342         343         344         345         346         347         348         349         350
 IAtWgt=          16           1           1          16           1           1          16           1           1          16
 AtmWgt=  15.9949146   1.0078250   1.0078250  15.9949146   1.0078250   1.0078250  15.9949146   1.0078250   1.0078250  15.9949146
 NucSpn=           0           1           1           0           1           1           0           1           1           0
 AtZEff=   0.0000000   0.0000000   0.0000000   0.0000000   0.0000000   0.0000000   0.0000000   0.0000000   0.0000000   0.0000000
 NQMom=    0.0000000   0.0000000   0.0000000   0.0000000   0.0000000   0.0000000   0.0000000   0.0000000   0.0000000   0.0000000
 NMagM=    0.0000000   2.7928460   2.7928460   0.0000000   2.7928460   2.7928460   0.0000000   2.7928460   2.7928460   0.0000000
 AtZNuc=   8.0000000   1.0000000   1.0000000   8.0000000   1.0000000   1.0000000   8.0000000   1.0000000   1.0000000   8.0000000

  Atom       351         352         353         354         355         356         357         358         359         360
 IAtWgt=           1           1          16           1           1          16           1           1          16           1
 AtmWgt=   1.0078250   1.0078250  15.9949146   1.0078250   1.0078250  15.9949146   1.0078250   1.0078250  15.9949146   1.0078250
 NucSpn=           1           1           0           1           1           0           1           1           0           1
 AtZEff=   0.0000000   0.0000000   0.0000000   0.0000000   0.0000000   0.0000000   0.0000000   0.0000000   0.0000000   0.0000000
 NQMom=    0.0000000   0.0000000   0.0000000   0.0000000   0.0000000   0.0000000   0.0000000   0.0000000   0.0000000   0.0000000
 NMagM=    2.7928460   2.7928460   0.0000000   2.7928460   2.7928460   0.0000000   2.7928460   2.7928460   0.0000000   2.7928460
 AtZNuc=   1.0000000   1.0000000   8.0000000   1.0000000   1.0000000   8.0000000   1.0000000   1.0000000   8.0000000   1.0000000

  Atom       361         362         363         364         365         366         367         368         369         370
 IAtWgt=           1          16           1           1          16           1           1          16           1           1
 AtmWgt=   1.0078250  15.9949146   1.0078250   1.0078250  15.9949146   1.0078250   1.0078250  15.9949146   1.0078250   1.0078250
 NucSpn=           1           0           1           1           0           1           1           0           1           1
 AtZEff=   0.0000000   0.0000000   0.0000000   0.0000000   0.0000000   0.0000000   0.0000000   0.0000000   0.0000000   0.0000000
 NQMom=    0.0000000   0.0000000   0.0000000   0.0000000   0.0000000   0.0000000   0.0000000   0.0000000   0.0000000   0.0000000
 NMagM=    2.7928460   0.0000000   2.7928460   2.7928460   0.0000000   2.7928460   2.7928460   0.0000000   2.7928460   2.7928460
 AtZNuc=   1.0000000   8.0000000   1.0000000   1.0000000   8.0000000   1.0000000   1.0000000   8.0000000   1.0000000   1.0000000

  Atom       371         372         373         374         375         376         377         378         379         380
 IAtWgt=          16           1           1          16           1           1          16           1           1          16
 AtmWgt=  15.9949146   1.0078250   1.0078250  15.9949146   1.0078250   1.0078250  15.9949146   1.0078250   1.0078250  15.9949146
 NucSpn=           0           1           1           0           1           1           0           1           1           0
 AtZEff=   0.0000000   0.0000000   0.0000000   0.0000000   0.0000000   0.0000000   0.0000000   0.0000000   0.0000000   0.0000000
 NQMom=    0.0000000   0.0000000   0.0000000   0.0000000   0.0000000   0.0000000   0.0000000   0.0000000   0.0000000   0.0000000
 NMagM=    0.0000000   2.7928460   2.7928460   0.0000000   2.7928460   2.7928460   0.0000000   2.7928460   2.7928460   0.0000000
 AtZNuc=   8.0000000   1.0000000   1.0000000   8.0000000   1.0000000   1.0000000   8.0000000   1.0000000   1.0000000   8.0000000

  Atom       381         382         383         384         385
 IAtWgt=           1           1          16           1           1
 AtmWgt=   1.0078250   1.0078250  15.9949146   1.0078250   1.0078250
 NucSpn=           1           1           0           1           1
 AtZEff=   0.0000000   0.0000000   0.0000000   0.0000000   0.0000000
 NQMom=    0.0000000   0.0000000   0.0000000   0.0000000   0.0000000
 NMagM=    2.7928460   2.7928460   0.0000000   2.7928460   2.7928460
 AtZNuc=   1.0000000   1.0000000   8.0000000   1.0000000   1.0000000
 Leave Link  101 at Mon May 14 23:25:28 2018, MaxMem= 14763950080 cpu:        33.2
 (Enter /cm/shared/gaussian/g09.e01/intel64-sandybridge/g09/l103.exe)

 GradGradGradGradGradGradGradGradGradGradGradGradGradGradGradGradGradGrad
 Berny optimization.
 Initialization pass.
 Trust Radius=3.00D-01 FncErr=1.00D-07 GrdErr=1.00D-07
 Number of steps in this run=      2 maximum allowed number of steps=      2.
 GradGradGradGradGradGradGradGradGradGradGradGradGradGradGradGradGradGrad

 Leave Link  103 at Mon May 14 23:25:28 2018, MaxMem= 14763950080 cpu:         3.6
 (Enter /cm/shared/gaussian/g09.e01/intel64-sandybridge/g09/l202.exe)
 Symmetry turned off by external request.
 Stoichiometry    BrH256O128(1-)
 Framework group  C1[X(BrH256O128)]
 Deg. of freedom  1149
 Full point group                 C1      NOp   1
                          Input orientation:                          
 ---------------------------------------------------------------------
 Center     Atomic      Atomic             Coordinates (Angstroms)
 Number     Number       Type             X           Y           Z
 ---------------------------------------------------------------------
      1         35           0       20.000000   20.000000   20.000000
      2          8           0       18.600000   18.830000   17.500000
      3          1           0       18.900000   19.100000   18.360000
      4          1           0       18.210000   17.970000   17.640000
      5          8           0       17.980000   18.010000   21.310000
      6          1           0       18.820000   18.390000   21.040000
      7          1           0       18.040000   17.090000   21.050000
      8          8           0       19.300000   22.410000   22.020000
      9          1           0       19.510000   21.530000   21.730000
     10          1           0       20.050000   22.940000   21.760000
     11          8           0       21.060000   22.650000   18.480000
     12          1           0       20.980000   22.040000   19.210000
     13          1           0       20.530000   22.270000   17.790000
     14          8           0       21.330000   17.350000   18.250000
     15          1           0       21.370000   18.190000   18.720000
     16          1           0       20.840000   16.780000   18.840000
     17          8           0       17.700000   22.990000   19.500000
     18          1           0       18.110000   22.140000   19.330000
     19          1           0       18.120000   23.300000   20.300000
     20          8           0       21.480000   17.440000   21.740000
     21          1           0       20.560000   17.670000   21.730000
     22          1           0       21.900000   18.070000   21.160000
     23          8           0       23.400000   21.360000   21.280000
     24          1           0       23.630000   22.170000   20.830000
     25          1           0       22.690000   20.980000   20.750000
     26          8           0       19.530000   21.380000   16.680000
     27          1           0       19.680000   21.310000   15.740000
     28          1           0       19.120000   20.550000   16.910000
     29          8           0       18.100000   18.510000   23.940000
     30          1           0       17.610000   19.290000   24.180000
     31          1           0       18.140000   18.540000   22.980000
     32          8           0       23.570000   18.830000   20.680000
     33          1           0       24.130000   18.350000   20.070000
     34          1           0       23.850000   19.740000   20.600000
     35          8           0       21.490000   17.360000   15.550000
     36          1           0       21.250000   17.490000   16.470000
     37          1           0       21.520000   16.410000   15.440000
     38          8           0       16.790000   23.110000   23.180000
     39          1           0       17.470000   22.570000   22.770000
     40          1           0       17.260000   23.840000   23.580000
     41          8           0       16.450000   20.500000   16.740000
     42          1           0       15.950000   20.360000   17.550000
     43          1           0       16.920000   19.680000   16.600000
     44          8           0       23.180000   24.070000   18.110000
     45          1           0       23.830000   23.840000   18.770000
     46          1           0       22.360000   23.670000   18.420000
     47          8           0       15.380000   22.860000   20.880000
     48          1           0       16.130000   22.880000   20.290000
     49          1           0       15.750000   22.760000   21.750000
     50          8           0       18.420000   15.420000   21.220000
     51          1           0       18.430000   14.530000   21.580000
     52          1           0       18.770000   15.330000   20.340000
     53          8           0       23.590000   18.870000   16.290000
     54          1           0       23.950000   18.770000   15.410000
     55          1           0       22.750000   18.410000   16.250000
     56          8           0       23.880000   16.450000   22.520000
     57          1           0       23.110000   16.760000   22.030000
     58          1           0       24.020000   17.120000   23.190000
     59          8           0       15.550000   17.290000   22.620000
     60          1           0       16.440000   17.420000   22.270000
     61          1           0       15.640000   17.460000   23.560000
     62          8           0       18.540000   24.680000   16.670000
     63          1           0       19.210000   25.350000   16.540000
     64          1           0       19.030000   23.930000   17.010000
     65          8           0       21.220000   24.350000   22.360000
     66          1           0       21.570000   23.980000   23.180000
     67          1           0       21.950000   24.310000   21.750000
     68          8           0       21.350000   19.090000   25.350000
     69          1           0       20.570000   19.010000   25.910000
     70          1           0       21.260000   19.950000   24.940000
     71          8           0       15.070000   19.560000   18.760000
     72          1           0       14.770000   18.660000   18.590000
     73          1           0       14.820000   19.720000   19.670000
     74          8           0       24.610000   17.370000   18.390000
     75          1           0       24.230000   17.950000   17.730000
     76          1           0       23.880000   16.820000   18.670000
     77          8           0       16.000000   23.150000   17.320000
     78          1           0       16.630000   23.410000   17.990000
     79          1           0       16.460000   22.490000   16.800000
     80          8           0       23.230000   22.480000   15.760000
     81          1           0       22.970000   23.110000   16.430000
     82          1           0       22.550000   21.800000   15.810000
     83          8           0       20.940000   20.180000   14.550000
     84          1           0       20.570000   19.330000   14.790000
     85          1           0       21.790000   19.970000   14.160000
     86          8           0       21.050000   16.400000   24.600000
     87          1           0       21.150000   17.340000   24.440000
     88          1           0       20.730000   16.340000   25.490000
     89          8           0       19.500000   14.870000   18.720000
     90          1           0       20.200000   14.380000   18.290000
     91          1           0       18.750000   14.810000   18.130000
     92          8           0       19.080000   24.490000   24.120000
     93          1           0       19.650000   24.150000   23.430000
     94          1           0       19.600000   24.430000   24.920000
     95          8           0       24.400000   21.570000   24.280000
     96          1           0       23.970000   21.170000   23.520000
     97          1           0       25.200000   21.960000   23.920000
     98          8           0       19.140000   25.390000   20.950000
     99          1           0       19.800000   25.240000   21.630000
    100          1           0       18.550000   26.040000   21.330000
    101          8           0       21.300000   14.450000   22.620000
    102          1           0       20.720000   14.870000   21.990000
    103          1           0       21.310000   15.050000   23.370000
    104          8           0       20.700000   21.720000   25.830000
    105          1           0       20.380000   21.610000   26.720000
    106          1           0       19.910000   21.720000   25.290000
    107          8           0       14.920000   20.610000   23.530000
    108          1           0       14.470000   21.450000   23.610000
    109          1           0       14.850000   20.390000   22.600000
    110          8           0       25.590000   21.310000   17.620000
    111          1           0       26.330000   21.090000   17.060000
    112          1           0       24.830000   21.310000   17.030000
    113          8           0       22.360000   23.450000   24.590000
    114          1           0       21.840000   22.950000   25.220000
    115          1           0       22.930000   22.800000   24.180000
    116          8           0       23.580000   24.530000   20.910000
    117          1           0       23.670000   25.340000   20.420000
    118          1           0       24.300000   23.980000   20.620000
    119          8           0       17.780000   21.440000   25.380000
    120          1           0       17.770000   22.010000   26.160000
    121          1           0       17.140000   21.850000   24.790000
    122          8           0       17.670000   15.950000   24.470000
    123          1           0       18.070000   15.740000   23.630000
    124          1           0       17.680000   16.910000   24.510000
    125          8           0       25.510000   23.030000   19.670000
    126          1           0       26.420000   23.060000   19.960000
    127          1           0       25.470000   22.310000   19.050000
    128          8           0       17.630000   15.040000   16.610000
    129          1           0       17.280000   15.890000   16.330000
    130          1           0       16.860000   14.460000   16.620000
    131          8           0       15.970000   17.090000   16.100000
    132          1           0       15.750000   17.500000   15.260000
    133          1           0       15.170000   17.170000   16.620000
    134          8           0       19.090000   19.500000   26.800000
    135          1           0       18.520000   19.430000   27.570000
    136          1           0       18.630000   20.090000   26.200000
    137          8           0       19.560000   27.030000   18.790000
    138          1           0       19.570000   26.320000   19.430000
    139          1           0       18.660000   27.330000   18.760000
    140          8           0       13.560000   18.660000   21.210000
    141          1           0       14.140000   18.130000   21.760000
    142          1           0       12.730000   18.180000   21.200000
    143          8           0       14.300000   15.960000   20.510000
    144          1           0       14.710000   15.100000   20.430000
    145          1           0       14.810000   16.400000   21.200000
    146          8           0       23.920000   17.780000   24.790000
    147          1           0       23.490000   18.520000   25.210000
    148          1           0       23.990000   17.120000   25.480000
    149          8           0       26.430000   16.860000   21.910000
    150          1           0       25.570000   16.800000   21.510000
    151          1           0       26.340000   17.520000   22.600000
    152          8           0       15.250000   18.230000   25.140000
    153          1           0       15.310000   18.590000   26.020000
    154          1           0       15.330000   18.990000   24.570000
    155          8           0       12.920000   22.720000   20.030000
    156          1           0       13.820000   22.490000   20.240000
    157          1           0       12.770000   23.550000   20.480000
    158          8           0       14.070000   21.190000   15.420000
    159          1           0       14.960000   20.970000   15.690000
    160          1           0       13.720000   21.720000   16.130000
    161          8           0       21.850000   13.630000   17.680000
    162          1           0       22.690000   13.460000   18.120000
    163          1           0       22.070000   14.160000   16.920000
    164          8           0       23.980000   20.130000   26.520000
    165          1           0       23.880000   20.640000   25.710000
    166          1           0       23.680000   20.730000   27.210000
    167          8           0       13.710000   16.740000   17.920000
    168          1           0       14.110000   16.550000   18.770000
    169          1           0       12.810000   16.970000   18.130000
    170          8           0       17.270000   23.620000   14.170000
    171          1           0       17.320000   24.440000   14.670000
    172          1           0       18.170000   23.290000   14.160000
    173          8           0       27.500000   21.730000   21.120000
    174          1           0       27.480000   21.110000   20.390000
    175          1           0       26.580000   21.850000   21.350000
    176          8           0       19.050000   15.800000   14.060000
    177          1           0       18.720000   15.420000   14.870000
    178          1           0       19.650000   15.140000   13.710000
    179          8           0       19.560000   21.730000   12.460000
    180          1           0       20.170000   21.350000   13.100000
    181          1           0       19.630000   21.160000   11.700000
    182          8           0       21.980000   27.010000   23.420000
    183          1           0       21.390000   27.560000   22.910000
    184          1           0       21.980000   26.160000   22.970000
    185          8           0       24.340000   16.540000   14.380000
    186          1           0       23.790000   16.380000   15.150000
    187          1           0       23.830000   16.190000   13.650000
    188          8           0       14.120000   23.210000   23.890000
    189          1           0       13.590000   24.010000   23.910000
    190          1           0       15.020000   23.520000   23.820000
    191          8           0       25.100000   25.010000   16.180000
    192          1           0       26.000000   24.880000   16.480000
    193          1           0       24.640000   24.210000   16.460000
    194          8           0       17.040000   27.030000   17.540000
    195          1           0       17.480000   26.210000   17.320000
    196          1           0       16.280000   27.060000   16.960000
    197          8           0       13.230000   23.030000   17.180000
    198          1           0       14.170000   23.200000   17.160000
    199          1           0       12.990000   23.080000   18.110000
    200          8           0       22.890000   23.940000   13.390000
    201          1           0       23.840000   23.860000   13.340000
    202          1           0       22.650000   23.450000   14.170000
    203          8           0       23.490000   13.150000   21.730000
    204          1           0       23.390000   13.400000   20.810000
    205          1           0       22.740000   13.550000   22.170000
    206          8           0       27.230000   17.610000   17.590000
    207          1           0       26.470000   17.160000   17.970000
[...]
   Z335      30.25452   0.00642   0.00000  -0.00136  -0.00033  30.25418
   X336      54.29183   0.00695   0.00000   0.00749   0.00811  54.29994
   Y336      38.92836  -0.00296   0.00000  -0.00483  -0.00337  38.92499
   Z336      30.76474  -0.00230   0.00000  -0.00537  -0.00422  30.76052
   X337      52.26982  -0.00618   0.00000  -0.00896  -0.00814  52.26168
   Y337      37.92680  -0.01296   0.00000  -0.01122  -0.00986  37.91694
   Z337      29.00730  -0.00735   0.00000  -0.00189  -0.00091  29.00639
   X338      37.85121  -0.00900   0.00000  -0.00962  -0.00839  37.84283
   Y338      21.18383   0.01244   0.00000   0.00407   0.00419  21.18802
   Z338      39.24961   0.00665   0.00000   0.00529   0.00483  39.25444
   X339      38.13467   0.00263   0.00000   0.00086   0.00226  38.13694
   Y339      20.57912   0.00041   0.00000   0.00654   0.00671  20.58583
   Z339      37.56776  -0.01691   0.00000  -0.01293  -0.01339  37.55437
   X340      38.45593   0.00800   0.00000   0.00778   0.00903  38.46495
   Y340      19.87992  -0.01037   0.00000  -0.00674  -0.00660  19.87332
   Z340      40.32676   0.00958   0.00000   0.00790   0.00745  40.33421
   X341      23.84834  -0.00470   0.00000  -0.00050  -0.00137  23.84697
   Y341      41.32831  -0.00737   0.00000  -0.00106  -0.00214  41.32617
   Z341      49.05729   0.01839   0.00000   0.01665   0.01564  49.07293
   X342      25.20895   0.00659   0.00000   0.00127   0.00044  25.20938
   Y342      41.85743   0.00663   0.00000   0.00595   0.00499  41.86242
   Z342      47.99904  -0.01059   0.00000  -0.00625  -0.00714  47.99190
   X343      22.35546  -0.00203   0.00000   0.00164   0.00078  22.35624
   Y343      41.95192   0.00090   0.00000  -0.00135  -0.00252  41.94940
   Z343      48.24471  -0.00629   0.00000  -0.00475  -0.00585  48.23885
   X344      36.32054  -0.00251   0.00000  -0.00291  -0.00211  36.31842
   Y344      45.86365   0.01877   0.00000   0.01218   0.01260  45.87626
   Z344      21.67516  -0.00873   0.00000  -0.00492  -0.00491  21.67025
   X345      36.24495  -0.00099   0.00000  -0.00251  -0.00156  36.24339
   Y345      45.56130  -0.00124   0.00000  -0.00188  -0.00142  45.55987
   Z345      19.87992   0.00201   0.00000   0.00051   0.00050  19.88042
   X346      36.54730   0.00309   0.00000   0.00225   0.00311  36.55042
   Y346      44.21959  -0.01402   0.00000  -0.00556  -0.00513  44.21446
   Z346      22.39325   0.00736   0.00000   0.00556   0.00554  22.39880
   X347      25.43571   0.01136   0.00000   0.00396   0.00543  25.44114
   Y347      28.74273   0.00033   0.00000   0.00097   0.00047  28.74321
   Z347      28.79943  -0.00308   0.00000   0.00146   0.00027  28.79970
   X348      23.81055  -0.01158   0.00000  -0.00889  -0.00734  23.80321
   Y348      28.11912  -0.00375   0.00000  -0.00132  -0.00192  28.11720
   Z348      28.34589  -0.00440   0.00000  -0.00309  -0.00441  28.34148
   X349      25.17115   0.00343   0.00000   0.00613   0.00742  25.17858
   Y349      29.55532   0.00645   0.00000   0.00715   0.00660  29.56192
   Z349      30.40569   0.01016   0.00000   0.00991   0.00872  30.41442
   X350      28.74273  -0.00531   0.00000   0.00192   0.00121  28.74394
   Y350      35.71582  -0.01922   0.00000  -0.00930  -0.01012  35.70570
   Z350      52.28872  -0.00511   0.00000  -0.00134  -0.00212  52.28660
   X351      29.63091   0.01006   0.00000   0.00717   0.00633  29.63723
   Y351      37.26540   0.01947   0.00000   0.01311   0.01235  37.27775
   Z351      52.55328   0.01199   0.00000   0.01646   0.01578  52.56906
   X352      27.32544  -0.00193   0.00000  -0.00190  -0.00271  27.32273
   Y352      35.82921  -0.00155   0.00000  -0.00350  -0.00445  35.82476
   Z352      53.42256  -0.00164   0.00000  -0.00376  -0.00465  53.41791
   X353      23.11135  -0.01989   0.00000  -0.00939  -0.01004  23.10131
   Y353      47.46992  -0.01537   0.00000  -0.00972  -0.01065  47.45927
   Z353      40.17558  -0.00480   0.00000  -0.00423  -0.00514  40.17044
   X354      24.47195   0.01670   0.00000   0.01099   0.01036  24.48231
   Y354      48.13132   0.01704   0.00000   0.02024   0.01943  48.15076
   Z354      39.19292  -0.00440   0.00000   0.00230   0.00150  39.19442
   X355      23.47040   0.00484   0.00000   0.00334   0.00253  23.47293
   Y355      47.99904   0.00445   0.00000   0.00270   0.00176  48.00080
   Z355      41.85743   0.00885   0.00000   0.00403   0.00315  41.86058
   X356      37.58665  -0.01362   0.00000  -0.00750  -0.00900  37.57766
   Y356      47.65889  -0.02120   0.00000  -0.01375  -0.01394  47.64495
   Z356      51.57063   0.00358   0.00000   0.00048   0.00062  51.57125
   X357      38.11578   0.00194   0.00000  -0.00405  -0.00558  38.11019
   Y357      49.15178   0.02042   0.00000   0.01396   0.01383  49.16560
   Z357      50.70135  -0.00874   0.00000  -0.00405  -0.00384  50.69751
   X358      38.60710   0.00525   0.00000   0.00521   0.00361  38.61072
   Y358      47.62110  -0.00203   0.00000  -0.00446  -0.00462  47.61648
   Z358      53.06351   0.00407   0.00000   0.00124   0.00145  53.06496
   X359      33.71271  -0.00034   0.00000  -0.00654  -0.00750  33.70521
   Y359      54.27293   0.00157   0.00000   0.00430   0.00416  54.27709
   Z359      37.87011   0.01058   0.00000   0.01384   0.01385  37.88396
   X360      32.08755  -0.00793   0.00000  -0.00499  -0.00588  32.08167
   Y360      54.15955  -0.00166   0.00000  -0.00234  -0.00257  54.15698
   Z360      37.07643  -0.00807   0.00000  -0.00977  -0.00987  37.06655
   X361      34.20404  -0.00047   0.00000  -0.00042  -0.00148  34.20256
   Y361      56.01148   0.00227   0.00000   0.00225   0.00215  56.01363
   Z361      37.66224  -0.00305   0.00000  -0.00496  -0.00486  37.65738
   X362      41.91413   0.01113   0.00000   0.01275   0.01401  41.92814
   Y362      39.60866  -0.00943   0.00000  -0.01082  -0.01000  39.59866
   Z362      21.37280   0.00162   0.00000  -0.00408  -0.00382  21.36899
   X363      43.01017  -0.00224   0.00000  -0.00624  -0.00506  43.00511
   Y363      41.02595   0.00944   0.00000   0.01156   0.01246  41.03842
   Z363      21.07045   0.00137   0.00000   0.00374   0.00411  21.07456
   X364      40.44014  -0.00360   0.00000  -0.00116   0.00015  40.44029
   Y364      39.94881   0.00160   0.00000  -0.00044   0.00030  39.94911
   Z364      20.37125   0.00011   0.00000   0.00489   0.00506  20.37630
   X365      38.38034  -0.00647   0.00000  -0.00427  -0.00590  38.37444
   Y365      52.21313   0.00172   0.00000  -0.00032  -0.00039  52.21274
   Z365      49.00060   0.01283   0.00000   0.00412   0.00442  49.00502
   X366      38.73939   0.01161   0.00000   0.01688   0.01540  38.75478
   Y366      52.02416  -0.00817   0.00000  -0.01111  -0.01112  52.01304
   Z366      47.24315  -0.01650   0.00000  -0.01026  -0.00993  47.23322
   X367      37.94570  -0.00025   0.00000   0.00071  -0.00105  37.94465
   Y367      53.97058  -0.00007   0.00000   0.00051   0.00041  53.97099
   Z367      49.17067   0.00246   0.00000   0.00317   0.00349  49.17416
   X368      29.17737   0.02124   0.00000   0.01497   0.01665  29.19402
   Y368      25.39792  -0.01027   0.00000  -0.00304  -0.00328  25.39464
   Z368      29.15847   0.01734   0.00000   0.01173   0.01073  29.16921
   X369      28.17582  -0.01872   0.00000  -0.01720  -0.01560  28.16022
   Y369      26.85301   0.01765   0.00000   0.00897   0.00866  26.86167
   Z369      28.74273  -0.00301   0.00000   0.00353   0.00250  28.74523
   X370      28.98840  -0.00030   0.00000   0.00096   0.00282  28.99122
   Y370      24.28298  -0.00783   0.00000  -0.00591  -0.00614  24.27685
   Z370      27.76008  -0.00858   0.00000  -0.00234  -0.00337  27.75671
   X371      27.93015  -0.01251   0.00000  -0.00782  -0.00776  27.92239
   Y371      27.55221  -0.01101   0.00000  -0.00450  -0.00531  27.54690
   Z371      49.39744  -0.00177   0.00000   0.00015  -0.00088  49.39656
   X372      29.42304   0.01410   0.00000   0.00881   0.00878  29.43182
   Y372      28.53486   0.00841   0.00000   0.00425   0.00354  28.53840
   Z372      49.64311   0.00489   0.00000   0.00653   0.00563  49.64874
   X373      26.72073  -0.00331   0.00000  -0.00397  -0.00395  26.71678
   Y373      28.74273   0.00306   0.00000   0.00350   0.00263  28.74536
   Z373      48.73604  -0.00183   0.00000  -0.00137  -0.00247  48.73357
   X374      50.02105  -0.00307   0.00000   0.00145   0.00077  50.02182
   Y374      49.94546   0.00064   0.00000   0.00102   0.00201  49.94747
   Z374      38.15357   0.00273   0.00000  -0.00012   0.00098  38.15455
   X375      50.68245  -0.00033   0.00000  -0.00195  -0.00246  50.67999
   Y375      49.15178  -0.00437   0.00000  -0.00557  -0.00450  49.14728
   Z375      36.66069  -0.00518   0.00000  -0.00509  -0.00396  36.65672
   X376      51.23048   0.00659   0.00000   0.00806   0.00726  51.23774
   Y376      51.23048   0.00491   0.00000   0.00350   0.00456  51.23504
   Z376      38.56931   0.00129   0.00000  -0.00014   0.00107  38.57038
   X377      42.53774   0.01404   0.00000   0.00762   0.00941  42.54714
   Y377      30.61356  -0.00984   0.00000  -0.00708  -0.00625  30.60731
   Z377      22.65782   0.00725   0.00000   0.00449   0.00459  22.66241
   X378      42.29207  -0.00100   0.00000  -0.00215  -0.00019  42.29188
   Y378      29.10178  -0.00041   0.00000  -0.00172  -0.00089  29.10090
   Z378      21.67516  -0.00102   0.00000  -0.00124  -0.00120  21.67396
   X379      41.30941  -0.01053   0.00000  -0.00657  -0.00482  41.30460
   Y379      31.76630   0.00890   0.00000   0.00405   0.00481  31.77111
   Z379      21.99641  -0.00486   0.00000  -0.00108  -0.00105  21.99537
   X380      39.24961   0.00420   0.00000  -0.00141   0.00051  39.25012
   Y380      25.56799   0.01241   0.00000   0.00724   0.00777  25.57577
   Z380      25.64358   0.00372   0.00000   0.00099   0.00074  25.64432
   X381      39.81653   0.00239   0.00000  -0.00015   0.00194  39.81847
   Y381      24.30188  -0.00851   0.00000  -0.00556  -0.00495  24.29692
   Z381      24.49085  -0.00734   0.00000  -0.00454  -0.00478  24.48607
   X382      37.60555  -0.00664   0.00000  -0.00433  -0.00240  37.60315
   Y382      25.01997  -0.00739   0.00000  -0.00919  -0.00879  25.01119
   Z382      26.17271   0.00558   0.00000   0.00779   0.00740  26.18011
   X383      30.85923  -0.00860   0.00000  -0.00301  -0.00417  30.85506
   Y383      39.72204  -0.02741   0.00000  -0.01786  -0.01858  39.70346
   Z383      54.51860   0.00702   0.00000   0.00632   0.00578  54.52438
   X384      29.55532  -0.00505   0.00000  -0.00311  -0.00440  29.55092
   Y384      40.70470   0.00538   0.00000   0.00219   0.00136  40.70606
   Z384      55.29339   0.00231   0.00000   0.00166   0.00105  55.29444
   X385      31.97417   0.00737   0.00000  -0.00094  -0.00213  31.97204
   Y385      40.93147   0.02107   0.00000   0.01624   0.01561  40.94707
   Z385      53.80050  -0.00530   0.00000   0.00055   0.00013  53.80063
         Item               Value     Threshold  Converged?
 Maximum Force            0.036049     0.000450     NO 
 RMS     Force            0.010799     0.000300     NO 
 Maximum Displacement     0.033859     0.001800     NO 
 RMS     Displacement     0.008800     0.001200     NO 
 Predicted change in Energy=-7.586502D-02
 GradGradGradGradGradGradGradGradGradGradGradGradGradGradGradGradGradGrad

 Leave Link  103 at Tue May 15 01:48:23 2018, MaxMem= 14763950080 cpu:      2759.3
 (Enter /cm/shared/gaussian/g09.e01/intel64-sandybridge/g09/l9999.exe)
 1\1\GINC-POPLE04\Force\RPBE1PBE\CC-pVDZ\Br1H256O128(1-)\M.PELUSO\15-Ma
 y-2018\0\\#p PBE1PBE/cc-pvDZ force Counterpoise=2 noSymm\\forces on ch
 loride comput - NWATER: 128\\-1,1\Br,20.,20.,20.\O,18.6,18.83,17.5\H,1
 8.9,19.1,18.36\H,18.21,17.97,17.64\O,17.98,18.01,21.31\H,18.82,18.39,2
 1.04\H,18.04,17.09,21.05\O,19.3,22.41,22.02\H,19.51,21.53,21.73\H,20.0
 5,22.94,21.76\O,21.06,22.65,18.48\H,20.98,22.04,19.21\H,20.53,22.27,17
 .79\O,21.33,17.35,18.25\H,21.37,18.19,18.72\H,20.84,16.78,18.84\O,17.7
 ,22.99,19.5\H,18.11,22.14,19.33\H,18.12,23.3,20.3\O,21.48,17.44,21.74\
 H,20.56,17.67,21.73\H,21.9,18.07,21.16\O,23.4,21.36,21.28\H,23.63,22.1
 7,20.83\H,22.69,20.98,20.75\O,19.53,21.38,16.68\H,19.68,21.31,15.74\H,
 19.12,20.55,16.91\O,18.1,18.51,23.94\H,17.61,19.29,24.18\H,18.14,18.54
 ,22.98\O,23.57,18.83,20.68\H,24.13,18.35,20.07\H,23.85,19.74,20.6\O,21
 .49,17.36,15.55\H,21.25,17.49,16.47\H,21.52,16.41,15.44\O,16.79,23.11,
 23.18\H,17.47,22.57,22.77\H,17.26,23.84,23.58\O,16.45,20.5,16.74\H,15.
 95,20.36,17.55\H,16.92,19.68,16.6\O,23.18,24.07,18.11\H,23.83,23.84,18
 .77\H,22.36,23.67,18.42\O,15.38,22.86,20.88\H,16.13,22.88,20.29\H,15.7
 5,22.76,21.75\O,18.42,15.42,21.22\H,18.43,14.53,21.58\H,18.77,15.33,20
 .34\O,23.59,18.87,16.29\H,23.95,18.77,15.41\H,22.75,18.41,16.25\O,23.8
 8,16.45,22.52\H,23.11,16.76,22.03\H,24.02,17.12,23.19\O,15.55,17.29,22
 .62\H,16.44,17.42,22.27\H,15.64,17.46,23.56\O,18.54,24.68,16.67\H,19.2
 1,25.35,16.54\H,19.03,23.93,17.01\O,21.22,24.35,22.36\H,21.57,23.98,23
 .18\H,21.95,24.31,21.75\O,21.35,19.09,25.35\H,20.57,19.01,25.91\H,21.2
 6,19.95,24.94\O,15.07,19.56,18.76\H,14.77,18.66,18.59\H,14.82,19.72,19
 .67\O,24.61,17.37,18.39\H,24.23,17.95,17.73\H,23.88,16.82,18.67\O,16.,
 23.15,17.32\H,16.63,23.41,17.99\H,16.46,22.49,16.8\O,23.23,22.48,15.76
 \H,22.97,23.11,16.43\H,22.55,21.8,15.81\O,20.94,20.18,14.55\H,20.57,19
 .33,14.79\H,21.79,19.97,14.16\O,21.05,16.4,24.6\H,21.15,17.34,24.44\H,
 20.73,16.34,25.49\O,19.5,14.87,18.72\H,20.2,14.38,18.29\H,18.75,14.81,
 18.13\O,19.08,24.49,24.12\H,19.65,24.15,23.43\H,19.6,24.43,24.92\O,24.
 4,21.57,24.28\H,23.97,21.17,23.52\H,25.2,21.96,23.92\O,19.14,25.39,20.
 95\H,19.8,25.24,21.63\H,18.55,26.04,21.33\O,21.3,14.45,22.62\H,20.72,1
 4.87,21.99\H,21.31,15.05,23.37\O,20.7,21.72,25.83\H,20.38,21.61,26.72\
 H,19.91,21.72,25.29\O,14.92,20.61,23.53\H,14.47,21.45,23.61\H,14.85,20
 .39,22.6\O,25.59,21.31,17.62\H,26.33,21.09,17.06\H,24.83,21.31,17.03\O
 ,22.36,23.45,24.59\H,21.84,22.95,25.22\H,22.93,22.8,24.18\O,23.58,24.5
 3,20.91\H,23.67,25.34,20.42\H,24.3,23.98,20.62\O,17.78,21.44,25.38\H,1
 7.77,22.01,26.16\H,17.14,21.85,24.79\O,17.67,15.95,24.47\H,18.07,15.74
 ,23.63\H,17.68,16.91,24.51\O,25.51,23.03,19.67\H,26.42,23.06,19.96\H,2
 5.47,22.31,19.05\O,17.63,15.04,16.61\H,17.28,15.89,16.33\H,16.86,14.46
 ,16.62\O,15.97,17.09,16.1\H,15.75,17.5,15.26\H,15.17,17.17,16.62\O,19.
 09,19.5,26.8\H,18.52,19.43,27.57\H,18.63,20.09,26.2\O,19.56,27.03,18.7
 9\H,19.57,26.32,19.43\H,18.66,27.33,18.76\O,13.56,18.66,21.21\H,14.14,
 18.13,21.76\H,12.73,18.18,21.2\O,14.3,15.96,20.51\H,14.71,15.1,20.43\H
 ,14.81,16.4,21.2\O,23.92,17.78,24.79\H,23.49,18.52,25.21\H,23.99,17.12
 ,25.48\O,26.43,16.86,21.91\H,25.57,16.8,21.51\H,26.34,17.52,22.6\O,15.
 25,18.23,25.14\H,15.31,18.59,26.02\H,15.33,18.99,24.57\O,12.92,22.72,2
 0.03\H,13.82,22.49,20.24\H,12.77,23.55,20.48\O,14.07,21.19,15.42\H,14.
 96,20.97,15.69\H,13.72,21.72,16.13\O,21.85,13.63,17.68\H,22.69,13.46,1
 8.12\H,22.07,14.16,16.92\O,23.98,20.13,26.52\H,23.88,20.64,25.71\H,23.
 68,20.73,27.21\O,13.71,16.74,17.92\H,14.11,16.55,18.77\H,12.81,16.97,1
 8.13\O,17.27,23.62,14.17\H,17.32,24.44,14.67\H,18.17,23.29,14.16\O,27.
 5,21.73,21.12\H,27.48,21.11,20.39\H,26.58,21.85,21.35\O,19.05,15.8,14.
 06\H,18.72,15.42,14.87\H,19.65,15.14,13.71\O,19.56,21.73,12.46\H,20.17
 ,21.35,13.1\H,19.63,21.16,11.7\O,21.98,27.01,23.42\H,21.39,27.56,22.91
 \H,21.98,26.16,22.97\O,24.34,16.54,14.38\H,23.79,16.38,15.15\H,23.83,1
 6.19,13.65\O,14.12,23.21,23.89\H,13.59,24.01,23.91\H,15.02,23.52,23.82
 \O,25.1,25.01,16.18\H,26.,24.88,16.48\H,24.64,24.21,16.46\O,17.04,27.0
 3,17.54\H,17.48,26.21,17.32\H,16.28,27.06,16.96\O,13.23,23.03,17.18\H,
 14.17,23.2,17.16\H,12.99,23.08,18.11\O,22.89,23.94,13.39\H,23.84,23.86
 ,13.34\H,22.65,23.45,14.17\O,23.49,13.15,21.73\H,23.39,13.4,20.81\H,22
 .74,13.55,22.17\O,27.23,17.61,17.59\H,26.47,17.16,17.97\H,27.01,17.71,
 16.67\O,20.39,26.71,16.45\H,20.2,27.57,16.08\H,20.54,26.88,17.38\O,25.
 23,21.57,14.19\H,25.03,20.64,14.29\H,24.41,22.03,14.39\O,19.45,15.97,2
 6.78\H,19.02,15.7,25.97\H,19.91,15.19,27.08\O,14.58,26.43,20.46\H,15.1
 4,25.65,20.45\H,14.59,26.74,19.55\O,22.59,14.8,15.29\H,21.96,14.49,14.
 64\H,23.25,14.11,15.33\O,27.78,20.2,18.84\H,27.38,19.35,18.63\H,27.95,
 20.6,17.99\O,20.13,17.67,12.31\H,19.33,17.16,12.42\H,20.73,17.32,12.97
 \O,26.31,23.05,23.03\H,26.34,24.,22.91\H,27.23,22.78,23.\O,11.67,20.67
 ,21.08\H,12.41,20.08,20.95\H,11.98,21.52,20.76\O,15.53,13.48,21.1\H,16
 .46,13.33,21.29\H,15.45,13.4,20.15\O,23.67,19.4,13.26\H,23.48,20.01,12
 .55\H,24.1,18.66,12.84\O,24.85,14.15,23.75\H,24.42,13.71,23.02\H,24.91
 ,15.07,23.48\O,23.34,15.18,26.25\H,22.79,14.45,26.54\H,23.17,15.25,25.
 31\O,21.73,18.91,28.52\H,22.37,19.58,28.76\H,21.67,18.97,27.56\O,14.73
 ,18.8,13.88\H,15.59,19.05,13.55\H,14.4,19.59,14.31\O,17.99,12.63,21.97
 \H,17.47,12.02,22.48\H,18.7,12.1,21.61\O,23.39,26.96,17.27\H,23.57,27.
 07,18.2\H,23.93,26.21,17.\O,27.41,19.6,22.84\H,27.72,20.48,22.63\H,27.
 86,19.03,22.22\O,17.16,27.1,22.29\H,17.34,27.79,22.93\H,17.44,27.48,21
 .45\O,11.75,20.72,17.35\H,12.32,21.13,16.71\H,12.23,20.77,18.17\O,16.9
 6,19.97,12.55\H,16.46,20.76,12.35\H,17.59,19.9,11.84\O,23.85,27.14,20.
 05\H,24.81,27.09,20.08\H,23.63,27.87,20.63\O,23.27,22.95,27.28\H,23.83
 ,23.28,27.99\H,23.88,22.79,26.56\O,25.85,25.75,22.84\H,24.92,25.74,23.
 07\H,25.86,25.92,21.9\O,26.68,19.9,25.8\H,26.82,19.6,24.9\H,25.72,19.9
 6,25.88\O,12.96,16.71,24.73\H,13.87,16.97,24.55\H,12.58,17.48,25.16\O,
 20.39,28.34,21.43\H,19.65,28.94,21.52\H,20.48,28.22,20.48\O,17.8,22.89
 ,27.76\H,18.62,22.38,27.79\H,18.09,23.8,27.8\O,14.94,13.27,18.23\H,14.
 23,12.7,17.93\H,15.34,13.6,17.43\O,15.87,26.61,24.68\H,16.58,26.42,25.
 29\H,16.24,26.42,23.82\O,26.83,17.75,14.87\H,27.29,17.65,14.04\H,25.97
 ,17.35,14.72\O,20.28,12.06,24.05\H,21.11,12.53,23.94\H,19.83,12.15,23.
 21\O,16.81,16.12,27.6\H,17.69,16.37,27.34\H,16.32,16.94,27.62\O,15.95,
 22.34,11.91\H,16.71,22.35,12.49\H,15.53,23.19,12.04\O,24.24,12.81,18.2
 4\H,24.93,12.98,17.6\H,24.61,12.13,18.81\O,20.33,11.07,17.57\H,19.4,11
 .29,17.55\H,20.78,11.89,17.41\O,20.82,22.24,28.54\H,21.2,21.94,29.37\H
 ,21.55,22.66,28.08\O,19.2,19.67,10.74\H,19.41,19.26,9.9\H,19.65,19.13,
 11.39\O,17.81,11.81,16.82\H,17.25,11.09,17.14\H,17.2,12.52,16.64\O,21.
 75,26.79,13.64\H,21.98,25.89,13.87\H,20.81,26.85,13.79\O,12.15,14.38,2
 0.88\H,11.44,14.46,20.25\H,12.83,14.97,20.55\O,13.41,25.25,15.52\H,12.
 52,25.56,15.67\H,13.5,24.49,16.1\O,27.82,20.74,16.01\H,28.73,20.6,16.2
 8\H,27.66,20.07,15.35\O,20.03,11.21,20.77\H,20.18,10.89,19.88\H,20.35,
 10.52,21.34\O,12.62,21.87,25.96\H,13.34,22.15,25.4\H,11.83,22.2,25.53\
 O,19.22,24.27,11.47\H,19.18,24.11,10.52\H,19.34,23.4,11.85\O,13.46,15.
 21,15.24\H,12.6,14.88,15.\H,13.32,15.64,16.09\O,15.21,18.9,27.67\H,15.
 68,19.72,27.81\H,14.46,18.96,28.27\O,12.23,25.12,21.26\H,12.95,25.47,2
 0.74\H,12.42,25.4,22.15\O,19.89,25.22,27.29\H,20.17,26.01,26.83\H,20.4
 3,25.2,28.08\O,17.84,28.72,20.04\H,16.98,28.66,19.62\H,18.1,29.64,19.9
 3\O,22.18,20.96,11.31\H,22.76,21.71,11.15\H,21.4,21.14,10.78\O,20.31,2
 7.63,25.93\H,20.5,27.53,25.\H,20.08,28.56,26.02\O,15.44,13.44,15.43\H,
 14.91,14.21,15.21\H,15.34,12.85,14.69\O,14.78,14.58,26.14\H,15.57,15.1
 ,26.27\H,14.14,15.21,25.79\O,26.47,26.43,20.19\H,26.82,26.01,19.4\H,27
 .11,27.11,20.41\O,22.51,16.2,11.99\H,22.38,15.4,11.47\H,21.86,16.81,11
 .64\O,20.77,13.53,13.57\H,21.07,12.86,12.96\H,19.9,13.24,13.85\O,16.33
 ,21.02,28.85\H,15.64,21.54,29.26\H,16.92,21.66,28.47\\Version=ES64L-G0
 9RevE.01\HF=-9773.4587656\RMSD=1.850e-09\RMSF=1.080e-02\Dipole=7.15156
 86,3.3545945,-9.5050348\Quadrupole=402.7310081,324.770206,-727.5012141
 ,-1002.9990263,-1575.5272033,-1337.6897178\PG=C01 [X(Br1H256O128)]\\@


 ERROR IS A HARDY PLANT... IT FLOURISHETH IN EVERY SOIL.
            MARTIN FARQUHAR TUPPER
 Job cpu time:       6 days  5 hours 55 minutes 10.8 seconds.
 File lengths (MBytes):  RWF=   7285 Int=      0 D2E=      0 Chk=   2411 Scr=      1
 Normal termination of Gaussian 09 at Tue May 15 01:49:05 2018.
