 Entering Gaussian System, Link 0=/cm/shared/gaussian/g09.e01/intel64-sandybridge/g09/g09
 Initial command:
 /cm/shared/gaussian/g09.e01/intel64-sandybridge/g09/l1.exe "/local/scratch/m.peluso/128_wat/Gau-41900.inp" -scrdir="/local/scratch/m.peluso/128_wat/"
 Entering Link 1 = /cm/shared/gaussian/g09.e01/intel64-sandybridge/g09/l1.exe PID=     41901.
  
 Copyright (c) 1988,1990,1992,1993,1995,1998,2003,2009,2015,
            Gaussian, Inc.  All Rights Reserved.
  
 This is part of the Gaussian(R) 09 program.  It is based on
 the Gaussian(R) 03 system (copyright 2003, Gaussian, Inc.),
 the Gaussian(R) 98 system (copyright 1998, Gaussian, Inc.),
 the Gaussian(R) 94 system (copyright 1995, Gaussian, Inc.),
 the Gaussian 92(TM) system (copyright 1992, Gaussian, Inc.),
 the Gaussian 90(TM) system (copyright 1990, Gaussian, Inc.),
 the Gaussian 88(TM) system (copyright 1988, Gaussian, Inc.),
 the Gaussian 86(TM) system (copyright 1986, Carnegie Mellon
 University), and the Gaussian 82(TM) system (copyright 1983,
 Carnegie Mellon University). Gaussian is a federally registered
 trademark of Gaussian, Inc.
  
 This software contains proprietary and confidential information,
 including trade secrets, belonging to Gaussian, Inc.
  
 This software is provided under written license and may be
 used, copied, transmitted, or stored only in accord with that
 written license.
  
 The following legend is applicable only to US Government
 contracts under FAR:
  
                    RESTRICTED RIGHTS LEGEND
  
 Use, reproduction and disclosure by the US Government is
 subject to restrictions as set forth in subparagraphs (a)
 and (c) of the Commercial Computer Software - Restricted
 Rights clause in FAR 52.227-19.
  
 Gaussian, Inc.
 340 Quinnipiac St., Bldg. 40, Wallingford CT 06492
  
  
 ---------------------------------------------------------------
 Warning -- This program may not be used in any manner that
 competes with the business of Gaussian, Inc. or will provide
 assistance to any competitor of Gaussian, Inc.  The licensee
 of this program is prohibited from giving any competitor of
 Gaussian, Inc. access to this program.  By using this program,
 the user acknowledges that Gaussian, Inc. is engaged in the
 business of creating and licensing software in the field of
 computational chemistry and represents and warrants to the
 licensee that it is not a competitor of Gaussian, Inc. and that
 it will not use this program in any manner prohibited above.
 ---------------------------------------------------------------
  

 Cite this work as:
 Gaussian 09, Revision E.01,
 M. J. Frisch, G. W. Trucks, H. B. Schlegel, G. E. Scuseria, 
 M. A. Robb, J. R. Cheeseman, G. Scalmani, V. Barone, B. Mennucci, 
 G. A. Petersson, H. Nakatsuji, M. Caricato, X. Li, H. P. Hratchian, 
 A. F. Izmaylov, J. Bloino, G. Zheng, J. L. Sonnenberg, M. Hada, 
 M. Ehara, K. Toyota, R. Fukuda, J. Hasegawa, M. Ishida, T. Nakajima, 
 Y. Honda, O. Kitao, H. Nakai, T. Vreven, J. A. Montgomery, Jr., 
 J. E. Peralta, F. Ogliaro, M. Bearpark, J. J. Heyd, E. Brothers, 
 K. N. Kudin, V. N. Staroverov, T. Keith, R. Kobayashi, J. Normand, 
 K. Raghavachari, A. Rendell, J. C. Burant, S. S. Iyengar, J. Tomasi, 
 M. Cossi, N. Rega, J. M. Millam, M. Klene, J. E. Knox, J. B. Cross, 
 V. Bakken, C. Adamo, J. Jaramillo, R. Gomperts, R. E. Stratmann, 
 O. Yazyev, A. J. Austin, R. Cammi, C. Pomelli, J. W. Ochterski, 
 R. L. Martin, K. Morokuma, V. G. Zakrzewski, G. A. Voth, 
 P. Salvador, J. J. Dannenberg, S. Dapprich, A. D. Daniels, 
 O. Farkas, J. B. Foresman, J. V. Ortiz, J. Cioslowski, 
 and D. J. Fox, Gaussian, Inc., Wallingford CT, 2013.
 
 ******************************************
 Gaussian 09:  ES64L-G09RevE.01 30-Nov-2015
                15-May-2018 
 ******************************************
 %Mem=110GB
 %NProcShared=64
 Will use up to   64 processors via shared memory.
 %chk=snap93.chk
 ----------------------------------------------
 #p PBE1PBE/cc-pvDZ force Counterpoise=2 noSymm
 ----------------------------------------------
 1/10=7,30=1,38=1,62=2/1,3;
 2/12=2,15=1,17=6,18=5,40=1/2;
 1/10=7,30=1,38=1,53=2,62=2,63=101/22;
 3/5=16,11=2,16=1,25=1,30=1,71=1,74=-13/1,2,3;
 4//1;
 5/5=2,38=5/2;
 6/7=2,8=2,9=2,10=2,28=1/1;
 7/7=1,29=1,30=1,33=-1/1,2,3,16;
 1/10=7,30=1,53=2,62=2,63=101/22;
 3/5=7,6=11,11=2,16=1,25=1,30=1,71=1,74=-13,82=7/1,2,3;
 4//1;
 5/5=2,38=5/2;
 6/7=2,8=2,9=2,10=2,28=1/1;
 7/7=1,29=1,30=1,33=-1/1,2,3,16;
 1/10=7,30=1,53=2,62=2,63=101/22(-5);
 7/9=1,29=1,44=-1/16;
 1/10=7,30=1,62=2/3;
 99//99;
 Leave Link    1 at Tue May 15 22:37:07 2018, MaxMem= 14763950080 cpu:       149.0
 (Enter /cm/shared/gaussian/g09.e01/intel64-sandybridge/g09/l101.exe)
 ---------------------------------------
 forces on chloride comput - NWATER: 128
 ---------------------------------------
 Symbolic Z-matrix:
 Charge = -1 Multiplicity = 1 in supermolecule
 Charge = -1 Multiplicity = 1 in fragment      1.
 Charge =  0 Multiplicity = 1 in fragment      2.
 Br(Fragment=1)        20.       20.       20. 
 O(Fragment=2)         17.79     22.03     20.71 
 H(Fragment=2)         18.35     21.28     20.52 
 H(Fragment=2)         18.35     22.62     21.22 
 O(Fragment=2)         19.42     18.34     17.43 
 H(Fragment=2)         19.66     18.85     18.2 
 H(Fragment=2)         18.81     18.89     16.95 
 O(Fragment=2)         20.11     18.71     22.95 
 H(Fragment=2)         20.22     19.07     22.06 
 H(Fragment=2)         19.35     18.13     22.88 
 O(Fragment=2)         21.58     22.79     19.7 
 H(Fragment=2)         20.79     23.31     19.59 
 H(Fragment=2)         21.26     21.9      19.84 
 O(Fragment=2)         17.12     18.01     19.67 
 H(Fragment=2)         17.89     18.56     19.53 
 H(Fragment=2)         16.52     18.26     18.97 
 O(Fragment=2)         23.34     19.06     18.89 
 H(Fragment=2)         22.49     19.43     19.13 
 H(Fragment=2)         23.76     19.73     18.35 
 O(Fragment=2)         18.34     22.16     17.77 
 H(Fragment=2)         17.53     22.66     17.65 
 H(Fragment=2)         18.34     21.93     18.7 
 O(Fragment=2)         20.26     16.43     20.18 
 H(Fragment=2)         19.53     16.92     20.57 
 H(Fragment=2)         20.14     16.55     19.23 
 O(Fragment=2)         20.6      21.23     16.25 
 H(Fragment=2)         21.18     21.98     16.39 
 H(Fragment=2)         19.78     21.49     16.67 
 O(Fragment=2)         21.52     18.46     15.67 
 H(Fragment=2)         21.34     19.37     15.41 
 H(Fragment=2)         21.22     18.41     16.58 
 O(Fragment=2)         24.02     17.81     21.25 
 H(Fragment=2)         24.59     17.1      20.93 
 H(Fragment=2)         23.84     18.33     20.47 
 O(Fragment=2)         15.38     21.3      21.16 
 H(Fragment=2)         15.26     20.4      20.85 
 H(Fragment=2)         16.14     21.62     20.67 
 O(Fragment=2)         22.53     17.74     23.68 
 H(Fragment=2)         21.63     17.9      23.39 
 H(Fragment=2)         23.02     17.63     22.87 
 O(Fragment=2)         18.02     17.16     22.72 
 H(Fragment=2)         17.62     16.66     23.42 
 H(Fragment=2)         17.61     16.83     21.92 
 O(Fragment=2)         16.45     19.23     23.37 
 H(Fragment=2)         16.59     20.01     22.83 
 H(Fragment=2)         17.02     18.57     22.99 
 O(Fragment=2)         22.63     23.19     17.15 
 H(Fragment=2)         22.48     24.1      16.88 
 H(Fragment=2)         22.43     23.18     18.08 
 O(Fragment=2)         19.24     23.87     22.19 
 H(Fragment=2)         18.78     24.64     22.52 
 H(Fragment=2)         20.15     24.       22.47 
 O(Fragment=2)         25.13     20.32     21.48 
 H(Fragment=2)         25.62     20.77     22.17 
 H(Fragment=2)         24.22     20.59     21.62 
 O(Fragment=2)         20.57     15.43     23.07 
 H(Fragment=2)         20.23     15.74     23.91 
 H(Fragment=2)         20.36     16.14     22.46 
 O(Fragment=2)         23.81     23.27     21.84 
 H(Fragment=2)         23.5      24.16     22.03 
 H(Fragment=2)         23.31     23.01     21.06 
 O(Fragment=2)         15.8      19.58     17.82 
 H(Fragment=2)         15.92     20.52     17.9 
 H(Fragment=2)         16.44     19.31     17.16 
 O(Fragment=2)         20.09     24.62     18.58 
 H(Fragment=2)         20.27     25.5      18.26 
 H(Fragment=2)         19.21     24.42     18.27 
 O(Fragment=2)         20.13     21.02     24.78 
 H(Fragment=2)         21.07     21.       24.61 
 H(Fragment=2)         19.87     20.09     24.81 
 O(Fragment=2)         22.81     16.68     17.62 
 H(Fragment=2)         22.52     17.23     16.89 
 H(Fragment=2)         23.46     17.21     18.07 
 O(Fragment=2)         22.82     14.96     19.62 
 H(Fragment=2)         22.78     14.94     18.66 
 H(Fragment=2)         22.46     15.81     19.86 
 O(Fragment=2)         24.13     20.9      16.98 
 H(Fragment=2)         23.91     20.56     16.11 
 H(Fragment=2)         23.61     21.69     17.07 
 O(Fragment=2)         14.59     18.88     20.4 
 H(Fragment=2)         14.43     18.78     19.46 
 H(Fragment=2)         15.3      18.27     20.59 
 O(Fragment=2)         18.12     15.72     16.9 
 H(Fragment=2)         18.78     15.03     16.9 
 H(Fragment=2)         18.6      16.5      16.63 
 O(Fragment=2)         22.87     19.93     25.02 
 H(Fragment=2)         23.81     19.94     25.19 
 H(Fragment=2)         22.72     19.1      24.57 
 O(Fragment=2)         18.83     14.07     20.94 
 H(Fragment=2)         18.87     14.23     20. 
 H(Fragment=2)         19.4      14.74     21.32 
 O(Fragment=2)         19.3      22.17     14.05 
 H(Fragment=2)         19.77     21.78     14.79 
 H(Fragment=2)         19.72     23.01     13.91 
 O(Fragment=2)         18.47     23.1      25.15 
 H(Fragment=2)         18.83     22.22     25.19 
 H(Fragment=2)         18.46     23.32     24.22 
 O(Fragment=2)         15.48     22.29     17.56 
 H(Fragment=2)         14.58     22.56     17.76 
 H(Fragment=2)         15.61     22.52     16.64 
 O(Fragment=2)         16.83     18.71     15.43 
 H(Fragment=2)         16.43     19.11     14.66 
 H(Fragment=2)         16.64     17.78     15.34 
 O(Fragment=2)         22.86     22.92     24.64 
 H(Fragment=2)         23.13     22.01     24.77 
 H(Fragment=2)         23.09     23.11     23.73 
 O(Fragment=2)         20.29     16.51     14.25 
 H(Fragment=2)         20.59     17.24     14.8 
 H(Fragment=2)         21.1      16.12     13.92 
 O(Fragment=2)         21.53     14.09     16.88 
 H(Fragment=2)         21.3      13.91     15.96 
 H(Fragment=2)         21.58     15.04     16.93 
 O(Fragment=2)         15.54     15.45     18.39 
 H(Fragment=2)         15.43     14.52     18.6 
 H(Fragment=2)         16.42     15.51     18.03 
 O(Fragment=2)         17.52     24.91     17.05 
 H(Fragment=2)         16.71     25.06     16.56 
 H(Fragment=2)         18.15     24.61     16.39 
 O(Fragment=2)         12.99     21.35     19.17 
 H(Fragment=2)         12.62     21.       19.98 
 H(Fragment=2)         13.94     21.22     19.26 
 O(Fragment=2)         25.55     23.57     17.24 
 H(Fragment=2)         25.33     23.59     16.3 
 H(Fragment=2)         24.74     23.3      17.67 
 O(Fragment=2)         26.88     19.63     19.43 
 H(Fragment=2)         26.27     19.86     20.13 
 H(Fragment=2)         27.23     20.47     19.13 
 O(Fragment=2)         13.97     18.26     23.07 
 H(Fragment=2)         13.99     18.28     22.11 
 H(Fragment=2)         14.89     18.34     23.33 
 O(Fragment=2)         14.57     24.15     21.15 
 H(Fragment=2)         15.16     24.07     20.4 
 H(Fragment=2)         14.34     23.25     21.38 
 O(Fragment=2)         20.44     27.02     20.67 
 H(Fragment=2)         20.08     27.38     19.86 
 H(Fragment=2)         19.82     26.33     20.93 
 O(Fragment=2)         14.69     15.91     21.2 
 H(Fragment=2)         14.99     15.94     20.29 
 H(Fragment=2)         14.3      15.04     21.29 
 O(Fragment=2)         19.22     13.32     18.34 
 H(Fragment=2)         19.45     12.62     18.95 
 H(Fragment=2)         20.05     13.74     18.14 
 O(Fragment=2)         26.01     17.59     23.43 
 H(Fragment=2)         25.48     17.56     24.22 
 H(Fragment=2)         25.63     18.3      22.91 
 O(Fragment=2)         16.36     23.07     14.8 
 H(Fragment=2)         16.98     22.36     14.64 
 H(Fragment=2)         16.07     23.34     13.92 
 O(Fragment=2)         25.57     15.72     19.86 
 H(Fragment=2)         24.85     15.09     19.79 
 H(Fragment=2)         25.41     16.33     19.15 
 O(Fragment=2)         25.93     17.82     17.94 
 H(Fragment=2)         26.57     17.73     17.23 
 H(Fragment=2)         26.3      18.5      18.5 
 O(Fragment=2)         26.64     20.29     16.33 
 H(Fragment=2)         27.19     20.66     17.03 
 H(Fragment=2)         25.75     20.35     16.67 
 O(Fragment=2)         22.55     13.46     21.94 
 H(Fragment=2)         22.58     13.93     21.11 
 H(Fragment=2)         22.1      14.05     22.54 
 O(Fragment=2)         17.93     26.38     21.6 
 H(Fragment=2)         17.61     26.22     20.72 
 H(Fragment=2)         17.5      27.18     21.88 
 O(Fragment=2)         22.58     16.04     26.03 
 H(Fragment=2)         23.21     16.58     26.49 
 H(Fragment=2)         22.2      16.62     25.37 
 O(Fragment=2)         19.35     16.21     25.52 
 H(Fragment=2)         18.94     16.78     26.17 
 H(Fragment=2)         19.51     15.39     25.99 
 O(Fragment=2)         16.34     25.78     19.74 
 H(Fragment=2)         15.61     26.4      19.77 
 H(Fragment=2)         16.5      25.65     18.8 
 O(Fragment=2)         21.37     19.01     27.18 
 H(Fragment=2)         21.97     19.13     26.44 
 H(Fragment=2)         21.71     19.6      27.86 
 O(Fragment=2)         13.54     17.29     17.97 
 H(Fragment=2)         13.96     18.05     17.57 
 H(Fragment=2)         14.23     16.64     18.04 
 O(Fragment=2)         23.48     20.41     14.14 
 H(Fragment=2)         24.03     20.67     13.4 
 H(Fragment=2)         23.73     19.51     14.33 
 O(Fragment=2)         21.03     23.08     26.7 
 H(Fragment=2)         21.62     22.91     25.96 
 H(Fragment=2)         20.22     23.37     26.3 
 O(Fragment=2)         20.49     24.71     14.77 
 H(Fragment=2)         21.23     24.2      14.45 
 H(Fragment=2)         20.81     25.15     15.55 
 O(Fragment=2)         14.24     20.27     25.18 
 H(Fragment=2)         14.56     20.01     24.31 
 H(Fragment=2)         14.37     21.22     25.21 
 O(Fragment=2)         26.71     23.61     21.66 
 H(Fragment=2)         26.91     22.89     22.26 
 H(Fragment=2)         25.77     23.55     21.53 
 O(Fragment=2)         16.06     16.19     15.07 
 H(Fragment=2)         15.15     15.93     14.92 
 H(Fragment=2)         16.32     15.72     15.86 
 O(Fragment=2)         16.06     25.19     23.35 
 H(Fragment=2)         15.5      24.73     22.73 
 H(Fragment=2)         16.62     25.75     22.81 
 O(Fragment=2)         22.84     23.38     13.86 
 H(Fragment=2)         23.26     22.64     14.3 
 H(Fragment=2)         22.48     23.01     13.06 
 O(Fragment=2)         23.54     26.61     20.11 
 H(Fragment=2)         23.56     26.26     21. 
 H(Fragment=2)         22.61     26.6      19.87 
 O(Fragment=2)         15.2      23.09     24.77 
 H(Fragment=2)         15.59     23.88     24.39 
 H(Fragment=2)         15.94     22.65     25.19 
 O(Fragment=2)         16.38     20.41     13.35 
 H(Fragment=2)         16.23     21.07     12.68 
 H(Fragment=2)         17.32     20.23     13.32 
 O(Fragment=2)         17.19     21.56     27.42 
 H(Fragment=2)         17.78     21.2      26.77 
 H(Fragment=2)         17.18     20.91     28.13 
 O(Fragment=2)         15.86     15.17     23.79 
 H(Fragment=2)         15.39     14.62     24.41 
 H(Fragment=2)         15.17     15.64     23.31 
 O(Fragment=2)         22.38     26.08     16.67 
 H(Fragment=2)         23.27     26.1      16.33 
 H(Fragment=2)         22.07     26.98     16.6 
 O(Fragment=2)         24.18     17.82     13.89 
 H(Fragment=2)         24.71     17.46     13.17 
 H(Fragment=2)         23.52     17.15     14.06 
 O(Fragment=2)         17.95     16.2      13.05 
 H(Fragment=2)         18.73     16.38     13.57 
 H(Fragment=2)         17.28     15.98     13.69 
 O(Fragment=2)         23.82     25.91     22.57 
 H(Fragment=2)         24.77     25.89     22.72 
 H(Fragment=2)         23.44     25.93     23.45 
 O(Fragment=2)         18.79     27.41     17.96 
 H(Fragment=2)         18.34     28.26     17.96 
 H(Fragment=2)         18.26     26.87     17.38 
 O(Fragment=2)         19.92     12.71     24.38 
 H(Fragment=2)         20.25     13.52     24.01 
 H(Fragment=2)         20.15     12.75     25.31 
 O(Fragment=2)         19.16     19.95     11.66 
 H(Fragment=2)         19.82     19.26     11.73 
 H(Fragment=2)         19.32     20.51     12.42 
 O(Fragment=2)         22.54     25.76     24.89 
 H(Fragment=2)         23.27     26.32     25.18 
 H(Fragment=2)         22.75     24.89     25.24 
 O(Fragment=2)         17.37     11.84     21.66 
 H(Fragment=2)         18.07     11.28     22.01 
 H(Fragment=2)         17.83     12.6      21.3 
 O(Fragment=2)         22.89     19.4      11.71 
 H(Fragment=2)         22.64     19.52     12.62 
 H(Fragment=2)         22.36     18.67     11.4 
 O(Fragment=2)         17.53     12.87     16.31 
 H(Fragment=2)         18.08     12.95     17.09 
 H(Fragment=2)         16.9      12.18     16.52 
 O(Fragment=2)         25.62     20.21     25.54 
 H(Fragment=2)         25.57     21.11     25.86 
 H(Fragment=2)         25.98     19.71     26.27 
 O(Fragment=2)         25.72     22.52     14.58 
 H(Fragment=2)         25.62     22.33     13.65 
 H(Fragment=2)         25.88     21.66     14.98 
 O(Fragment=2)         12.96     23.22     17.44 
 H(Fragment=2)         12.55     23.02     16.6 
 H(Fragment=2)         12.66     22.52     18.02 
 O(Fragment=2)         18.55     26.25     26.26 
 H(Fragment=2)         17.65     26.52     26.11 
 H(Fragment=2)         18.66     25.45     25.73 
 O(Fragment=2)         27.91     21.87     18.46 
 H(Fragment=2)         27.37     22.46     17.95 
 H(Fragment=2)         28.79     22.26     18.43 
 O(Fragment=2)         25.95     14.45     22.63 
 H(Fragment=2)         26.02     14.99     21.84 
 H(Fragment=2)         26.09     15.06     23.35 
 O(Fragment=2)         13.03     20.66     14.86 
 H(Fragment=2)         13.81     20.12     14.73 
 H(Fragment=2)         12.54     20.2      15.55 
 O(Fragment=2)         22.75     11.8      17.77 
 H(Fragment=2)         23.62     12.02     17.46 
 H(Fragment=2)         22.2      12.54     17.49 
 O(Fragment=2)         28.17     16.49     20.62 
 H(Fragment=2)         28.08     16.62     21.56 
 H(Fragment=2)         27.28     16.28     20.32 
 O(Fragment=2)         14.75     25.91     16.92 
 H(Fragment=2)         14.27     25.2      17.34 
 H(Fragment=2)         14.47     26.7      17.39 
 O(Fragment=2)         11.45     19.98     17.04 
 H(Fragment=2)         10.76     19.45     17.43 
 H(Fragment=2)         12.07     20.13     17.75 
 O(Fragment=2)         17.33     17.18     27.3 
 H(Fragment=2)         16.4      17.38     27.22 
 H(Fragment=2)         17.71     17.95     27.73 
 O(Fragment=2)         14.61     18.04     26.9 
 H(Fragment=2)         14.35     18.59     27.64 
 H(Fragment=2)         14.48     18.59     26.13 
 O(Fragment=2)         11.76     20.73     21.61 
 H(Fragment=2)         11.74     20.01     22.24 
 H(Fragment=2)         11.46     21.49     22.1 
 O(Fragment=2)         27.42     21.69     23.64 
 H(Fragment=2)         27.63     21.03     24.31 
 H(Fragment=2)         28.24     22.15     23.5 
 O(Fragment=2)         25.18     13.26     17.26 
 H(Fragment=2)         26.06     13.62     17.34 
 H(Fragment=2)         24.81     13.32     18.14 
 O(Fragment=2)         22.37     15.02     13.58 
 H(Fragment=2)         22.91     15.13     12.8 
 H(Fragment=2)         21.7      14.39     13.32 
 O(Fragment=2)         23.87     13.13     24.78 
 H(Fragment=2)         23.34     13.26     23.99 
 H(Fragment=2)         24.77     13.08     24.46 
 O(Fragment=2)         19.6      22.1      28.94 
 H(Fragment=2)         20.06     22.44     28.17 
 H(Fragment=2)         18.82     22.66     29.02 
 O(Fragment=2)         11.72     15.68     19.82 
 H(Fragment=2)         11.69     16.33     19.12 
 H(Fragment=2)         12.57     15.81     20.24 
 O(Fragment=2)         27.94     17.88     16.28 
 H(Fragment=2)         27.57     18.76     16.22 
 H(Fragment=2)         28.01     17.59     15.37 
 O(Fragment=2)         12.04     16.       23.12 
 H(Fragment=2)         12.17     15.18     22.65 
 H(Fragment=2)         12.9      16.4      23.15 
 O(Fragment=2)         13.32     17.91     14.94 
 H(Fragment=2)         12.55     17.45     14.61 
 H(Fragment=2)         14.02     17.69     14.32 
 O(Fragment=2)         21.11     28.52     16.57 
 H(Fragment=2)         20.38     27.94     16.78 
 H(Fragment=2)         20.81     29.39     16.86 
 O(Fragment=2)         19.6      19.34     29.24 
 H(Fragment=2)         20.19     19.05     28.53 
 H(Fragment=2)         19.82     20.26     29.37 
 O(Fragment=2)         20.31     27.68     24.77 
 H(Fragment=2)         19.89     27.2      25.49 
 H(Fragment=2)         21.11     27.18     24.59 
 O(Fragment=2)         24.18     18.04     27.41 
 H(Fragment=2)         25.11     18.25     27.34 
 H(Fragment=2)         23.77     18.86     27.68 
 O(Fragment=2)         15.22     12.69     19.51 
 H(Fragment=2)         15.64     12.09     18.89 
 H(Fragment=2)         15.68     12.53     20.34 
 O(Fragment=2)         12.55     25.39     19.13 
 H(Fragment=2)         12.98     25.06     19.93 
 H(Fragment=2)         12.72     24.71     18.48 
 O(Fragment=2)         25.       26.33     16.71 
 H(Fragment=2)         25.72     25.86     17.12 
 H(Fragment=2)         25.25     26.4      15.79 
 O(Fragment=2)         20.17     29.15     22.62 
 H(Fragment=2)         20.11     28.82     23.51 
 H(Fragment=2)         20.51     28.41     22.11 
 O(Fragment=2)         20.85     11.3      19.73 
 H(Fragment=2)         21.76     11.23     19.47 
 H(Fragment=2)         20.86     11.28     20.69 
 O(Fragment=2)         12.22     22.98     24.73 
 H(Fragment=2)         13.03     22.47     24.7 
 H(Fragment=2)         12.51     23.89     24.85 
 O(Fragment=2)         27.67     25.43     17.63 
 H(Fragment=2)         28.21     25.15     18.37 
 H(Fragment=2)         27.       24.75     17.55 
 O(Fragment=2)         26.54     25.9      22.98 
 H(Fragment=2)         27.4      26.25     23.23 
 H(Fragment=2)         26.74     25.12     22.46 
 O(Fragment=2)         27.58     14.89     17.78 
 H(Fragment=2)         27.36     15.34     18.59 
 H(Fragment=2)         27.47     15.55     17.09 
 O(Fragment=2)         19.54     26.04     12.51 
 H(Fragment=2)         19.84     25.92     13.42 
 H(Fragment=2)         20.35     26.09     12. 
 O(Fragment=2)         25.13     12.51     19.99 
 H(Fragment=2)         24.67     12.52     20.82 
 H(Fragment=2)         26.06     12.49     20.22 
 O(Fragment=2)         20.27     15.46     11.45 
 H(Fragment=2)         19.9      14.59     11.34 
 H(Fragment=2)         19.75     15.86     12.15 
 O(Fragment=2)         21.94     22.42     11.66 
 H(Fragment=2)         22.4      21.83     11.06 
 H(Fragment=2)         21.36     22.93     11.09 
 O(Fragment=2)         23.04     23.4      28.61 
 H(Fragment=2)         22.47     23.4      27.85 
 H(Fragment=2)         22.46     23.29     29.36 
 O(Fragment=2)         29.74     19.14     19.31 
 H(Fragment=2)         28.82     18.88     19.37 
 H(Fragment=2)         30.18     18.61     19.97 
 O(Fragment=2)         28.78     17.25     23.11 
 H(Fragment=2)         27.86     17.42     23.33 
 H(Fragment=2)         29.2      18.11     23.15 
 O(Fragment=2)         17.29     12.1      24.49 
 H(Fragment=2)         17.27     12.24     23.55 
 H(Fragment=2)         18.19     12.33     24.75 
 O(Fragment=2)         25.35     25.       25.28 
 H(Fragment=2)         25.82     25.35     24.53 
 H(Fragment=2)         25.84     25.31     26.04 
 
 NAtoms=    385 NQM=      385 NQMF=       0 NMMI=      0 NMMIF=      0
                NMic=       0 NMicF=      0.
                    Isotopes and Nuclear Properties:
 (Nuclear quadrupole moments (NQMom) in fm**2, nuclear magnetic moments (NMagM)
  in nuclear magnetons)

  Atom         1           2           3           4           5           6           7           8           9          10
 IAtWgt=          79          16           1           1          16           1           1          16           1           1
 AtmWgt=  78.9183361  15.9949146   1.0078250   1.0078250  15.9949146   1.0078250   1.0078250  15.9949146   1.0078250   1.0078250
 NucSpn=           3           0           1           1           0           1           1           0           1           1
 AtZEff=   0.0000000   0.0000000   0.0000000   0.0000000   0.0000000   0.0000000   0.0000000   0.0000000   0.0000000   0.0000000
 NQMom=   31.3000000   0.0000000   0.0000000   0.0000000   0.0000000   0.0000000   0.0000000   0.0000000   0.0000000   0.0000000
 NMagM=    2.1063990   0.0000000   2.7928460   2.7928460   0.0000000   2.7928460   2.7928460   0.0000000   2.7928460   2.7928460
 AtZNuc=  35.0000000   8.0000000   1.0000000   1.0000000   8.0000000   1.0000000   1.0000000   8.0000000   1.0000000   1.0000000

  Atom        11          12          13          14          15          16          17          18          19          20
 IAtWgt=          16           1           1          16           1           1          16           1           1          16
 AtmWgt=  15.9949146   1.0078250   1.0078250  15.9949146   1.0078250   1.0078250  15.9949146   1.0078250   1.0078250  15.9949146
 NucSpn=           0           1           1           0           1           1           0           1           1           0
 AtZEff=   0.0000000   0.0000000   0.0000000   0.0000000   0.0000000   0.0000000   0.0000000   0.0000000   0.0000000   0.0000000
 NQMom=    0.0000000   0.0000000   0.0000000   0.0000000   0.0000000   0.0000000   0.0000000   0.0000000   0.0000000   0.0000000
 NMagM=    0.0000000   2.7928460   2.7928460   0.0000000   2.7928460   2.7928460   0.0000000   2.7928460   2.7928460   0.0000000
 AtZNuc=   8.0000000   1.0000000   1.0000000   8.0000000   1.0000000   1.0000000   8.0000000   1.0000000   1.0000000   8.0000000

  Atom        21          22          23          24          25          26          27          28          29          30
 IAtWgt=           1           1          16           1           1          16           1           1          16           1
 AtmWgt=   1.0078250   1.0078250  15.9949146   1.0078250   1.0078250  15.9949146   1.0078250   1.0078250  15.9949146   1.0078250
 NucSpn=           1           1           0           1           1           0           1           1           0           1
 AtZEff=   0.0000000   0.0000000   0.0000000   0.0000000   0.0000000   0.0000000   0.0000000   0.0000000   0.0000000   0.0000000
 NQMom=    0.0000000   0.0000000   0.0000000   0.0000000   0.0000000   0.0000000   0.0000000   0.0000000   0.0000000   0.0000000
 NMagM=    2.7928460   2.7928460   0.0000000   2.7928460   2.7928460   0.0000000   2.7928460   2.7928460   0.0000000   2.7928460
 AtZNuc=   1.0000000   1.0000000   8.0000000   1.0000000   1.0000000   8.0000000   1.0000000   1.0000000   8.0000000   1.0000000

  Atom        31          32          33          34          35          36          37          38          39          40
 IAtWgt=           1          16           1           1          16           1           1          16           1           1
 AtmWgt=   1.0078250  15.9949146   1.0078250   1.0078250  15.9949146   1.0078250   1.0078250  15.9949146   1.0078250   1.0078250
 NucSpn=           1           0           1           1           0           1           1           0           1           1
 AtZEff=   0.0000000   0.0000000   0.0000000   0.0000000   0.0000000   0.0000000   0.0000000   0.0000000   0.0000000   0.0000000
 NQMom=    0.0000000   0.0000000   0.0000000   0.0000000   0.0000000   0.0000000   0.0000000   0.0000000   0.0000000   0.0000000
 NMagM=    2.7928460   0.0000000   2.7928460   2.7928460   0.0000000   2.7928460   2.7928460   0.0000000   2.7928460   2.7928460
 AtZNuc=   1.0000000   8.0000000   1.0000000   1.0000000   8.0000000   1.0000000   1.0000000   8.0000000   1.0000000   1.0000000

  Atom        41          42          43          44          45          46          47          48          49          50
 IAtWgt=          16           1           1          16           1           1          16           1           1          16
 AtmWgt=  15.9949146   1.0078250   1.0078250  15.9949146   1.0078250   1.0078250  15.9949146   1.0078250   1.0078250  15.9949146
 NucSpn=           0           1           1           0           1           1           0           1           1           0
 AtZEff=   0.0000000   0.0000000   0.0000000   0.0000000   0.0000000   0.0000000   0.0000000   0.0000000   0.0000000   0.0000000
 NQMom=    0.0000000   0.0000000   0.0000000   0.0000000   0.0000000   0.0000000   0.0000000   0.0000000   0.0000000   0.0000000
 NMagM=    0.0000000   2.7928460   2.7928460   0.0000000   2.7928460   2.7928460   0.0000000   2.7928460   2.7928460   0.0000000
 AtZNuc=   8.0000000   1.0000000   1.0000000   8.0000000   1.0000000   1.0000000   8.0000000   1.0000000   1.0000000   8.0000000

  Atom        51          52          53          54          55          56          57          58          59          60
 IAtWgt=           1           1          16           1           1          16           1           1          16           1
 AtmWgt=   1.0078250   1.0078250  15.9949146   1.0078250   1.0078250  15.9949146   1.0078250   1.0078250  15.9949146   1.0078250
 NucSpn=           1           1           0           1           1           0           1           1           0           1
 AtZEff=   0.0000000   0.0000000   0.0000000   0.0000000   0.0000000   0.0000000   0.0000000   0.0000000   0.0000000   0.0000000
 NQMom=    0.0000000   0.0000000   0.0000000   0.0000000   0.0000000   0.0000000   0.0000000   0.0000000   0.0000000   0.0000000
 NMagM=    2.7928460   2.7928460   0.0000000   2.7928460   2.7928460   0.0000000   2.7928460   2.7928460   0.0000000   2.7928460
 AtZNuc=   1.0000000   1.0000000   8.0000000   1.0000000   1.0000000   8.0000000   1.0000000   1.0000000   8.0000000   1.0000000

  Atom        61          62          63          64          65          66          67          68          69          70
 IAtWgt=           1          16           1           1          16           1           1          16           1           1
 AtmWgt=   1.0078250  15.9949146   1.0078250   1.0078250  15.9949146   1.0078250   1.0078250  15.9949146   1.0078250   1.0078250
 NucSpn=           1           0           1           1           0           1           1           0           1           1
 AtZEff=   0.0000000   0.0000000   0.0000000   0.0000000   0.0000000   0.0000000   0.0000000   0.0000000   0.0000000   0.0000000
 NQMom=    0.0000000   0.0000000   0.0000000   0.0000000   0.0000000   0.0000000   0.0000000   0.0000000   0.0000000   0.0000000
 NMagM=    2.7928460   0.0000000   2.7928460   2.7928460   0.0000000   2.7928460   2.7928460   0.0000000   2.7928460   2.7928460
 AtZNuc=   1.0000000   8.0000000   1.0000000   1.0000000   8.0000000   1.0000000   1.0000000   8.0000000   1.0000000   1.0000000

  Atom        71          72          73          74          75          76          77          78          79          80
 IAtWgt=          16           1           1          16           1           1          16           1           1          16
 AtmWgt=  15.9949146   1.0078250   1.0078250  15.9949146   1.0078250   1.0078250  15.9949146   1.0078250   1.0078250  15.9949146
 NucSpn=           0           1           1           0           1           1           0           1           1           0
 AtZEff=   0.0000000   0.0000000   0.0000000   0.0000000   0.0000000   0.0000000   0.0000000   0.0000000   0.0000000   0.0000000
 NQMom=    0.0000000   0.0000000   0.0000000   0.0000000   0.0000000   0.0000000   0.0000000   0.0000000   0.0000000   0.0000000
 NMagM=    0.0000000   2.7928460   2.7928460   0.0000000   2.7928460   2.7928460   0.0000000   2.7928460   2.7928460   0.0000000
 AtZNuc=   8.0000000   1.0000000   1.0000000   8.0000000   1.0000000   1.0000000   8.0000000   1.0000000   1.0000000   8.0000000

  Atom        81          82          83          84          85          86          87          88          89          90
 IAtWgt=           1           1          16           1           1          16           1           1          16           1
 AtmWgt=   1.0078250   1.0078250  15.9949146   1.0078250   1.0078250  15.9949146   1.0078250   1.0078250  15.9949146   1.0078250
 NucSpn=           1           1           0           1           1           0           1           1           0           1
 AtZEff=   0.0000000   0.0000000   0.0000000   0.0000000   0.0000000   0.0000000   0.0000000   0.0000000   0.0000000   0.0000000
 NQMom=    0.0000000   0.0000000   0.0000000   0.0000000   0.0000000   0.0000000   0.0000000   0.0000000   0.0000000   0.0000000
 NMagM=    2.7928460   2.7928460   0.0000000   2.7928460   2.7928460   0.0000000   2.7928460   2.7928460   0.0000000   2.7928460
 AtZNuc=   1.0000000   1.0000000   8.0000000   1.0000000   1.0000000   8.0000000   1.0000000   1.0000000   8.0000000   1.0000000

  Atom        91          92          93          94          95          96          97          98          99         100
 IAtWgt=           1          16           1           1          16           1           1          16           1           1
 AtmWgt=   1.0078250  15.9949146   1.0078250   1.0078250  15.9949146   1.0078250   1.0078250  15.9949146   1.0078250   1.0078250
 NucSpn=           1           0           1           1           0           1           1           0           1           1
 AtZEff=   0.0000000   0.0000000   0.0000000   0.0000000   0.0000000   0.0000000   0.0000000   0.0000000   0.0000000   0.0000000
 NQMom=    0.0000000   0.0000000   0.0000000   0.0000000   0.0000000   0.0000000   0.0000000   0.0000000   0.0000000   0.0000000
 NMagM=    2.7928460   0.0000000   2.7928460   2.7928460   0.0000000   2.7928460   2.7928460   0.0000000   2.7928460   2.7928460
 AtZNuc=   1.0000000   8.0000000   1.0000000   1.0000000   8.0000000   1.0000000   1.0000000   8.0000000   1.0000000   1.0000000

  Atom       101         102         103         104         105         106         107         108         109         110
 IAtWgt=          16           1           1          16           1           1          16           1           1          16
 AtmWgt=  15.9949146   1.0078250   1.0078250  15.9949146   1.0078250   1.0078250  15.9949146   1.0078250   1.0078250  15.9949146
 NucSpn=           0           1           1           0           1           1           0           1           1           0
 AtZEff=   0.0000000   0.0000000   0.0000000   0.0000000   0.0000000   0.0000000   0.0000000   0.0000000   0.0000000   0.0000000
 NQMom=    0.0000000   0.0000000   0.0000000   0.0000000   0.0000000   0.0000000   0.0000000   0.0000000   0.0000000   0.0000000
 NMagM=    0.0000000   2.7928460   2.7928460   0.0000000   2.7928460   2.7928460   0.0000000   2.7928460   2.7928460   0.0000000
 AtZNuc=   8.0000000   1.0000000   1.0000000   8.0000000   1.0000000   1.0000000   8.0000000   1.0000000   1.0000000   8.0000000

  Atom       111         112         113         114         115         116         117         118         119         120
 IAtWgt=           1           1          16           1           1          16           1           1          16           1
 AtmWgt=   1.0078250   1.0078250  15.9949146   1.0078250   1.0078250  15.9949146   1.0078250   1.0078250  15.9949146   1.0078250
 NucSpn=           1           1           0           1           1           0           1           1           0           1
 AtZEff=   0.0000000   0.0000000   0.0000000   0.0000000   0.0000000   0.0000000   0.0000000   0.0000000   0.0000000   0.0000000
 NQMom=    0.0000000   0.0000000   0.0000000   0.0000000   0.0000000   0.0000000   0.0000000   0.0000000   0.0000000   0.0000000
 NMagM=    2.7928460   2.7928460   0.0000000   2.7928460   2.7928460   0.0000000   2.7928460   2.7928460   0.0000000   2.7928460
 AtZNuc=   1.0000000   1.0000000   8.0000000   1.0000000   1.0000000   8.0000000   1.0000000   1.0000000   8.0000000   1.0000000

  Atom       121         122         123         124         125         126         127         128         129         130
 IAtWgt=           1          16           1           1          16           1           1          16           1           1
 AtmWgt=   1.0078250  15.9949146   1.0078250   1.0078250  15.9949146   1.0078250   1.0078250  15.9949146   1.0078250   1.0078250
 NucSpn=           1           0           1           1           0           1           1           0           1           1
 AtZEff=   0.0000000   0.0000000   0.0000000   0.0000000   0.0000000   0.0000000   0.0000000   0.0000000   0.0000000   0.0000000
 NQMom=    0.0000000   0.0000000   0.0000000   0.0000000   0.0000000   0.0000000   0.0000000   0.0000000   0.0000000   0.0000000
 NMagM=    2.7928460   0.0000000   2.7928460   2.7928460   0.0000000   2.7928460   2.7928460   0.0000000   2.7928460   2.7928460
 AtZNuc=   1.0000000   8.0000000   1.0000000   1.0000000   8.0000000   1.0000000   1.0000000   8.0000000   1.0000000   1.0000000

  Atom       131         132         133         134         135         136         137         138         139         140
 IAtWgt=          16           1           1          16           1           1          16           1           1          16
 AtmWgt=  15.9949146   1.0078250   1.0078250  15.9949146   1.0078250   1.0078250  15.9949146   1.0078250   1.0078250  15.9949146
 NucSpn=           0           1           1           0           1           1           0           1           1           0
 AtZEff=   0.0000000   0.0000000   0.0000000   0.0000000   0.0000000   0.0000000   0.0000000   0.0000000   0.0000000   0.0000000
 NQMom=    0.0000000   0.0000000   0.0000000   0.0000000   0.0000000   0.0000000   0.0000000   0.0000000   0.0000000   0.0000000
 NMagM=    0.0000000   2.7928460   2.7928460   0.0000000   2.7928460   2.7928460   0.0000000   2.7928460   2.7928460   0.0000000
 AtZNuc=   8.0000000   1.0000000   1.0000000   8.0000000   1.0000000   1.0000000   8.0000000   1.0000000   1.0000000   8.0000000

  Atom       141         142         143         144         145         146         147         148         149         150
 IAtWgt=           1           1          16           1           1          16           1           1          16           1
 AtmWgt=   1.0078250   1.0078250  15.9949146   1.0078250   1.0078250  15.9949146   1.0078250   1.0078250  15.9949146   1.0078250
 NucSpn=           1           1           0           1           1           0           1           1           0           1
 AtZEff=   0.0000000   0.0000000   0.0000000   0.0000000   0.0000000   0.0000000   0.0000000   0.0000000   0.0000000   0.0000000
 NQMom=    0.0000000   0.0000000   0.0000000   0.0000000   0.0000000   0.0000000   0.0000000   0.0000000   0.0000000   0.0000000
 NMagM=    2.7928460   2.7928460   0.0000000   2.7928460   2.7928460   0.0000000   2.7928460   2.7928460   0.0000000   2.7928460
 AtZNuc=   1.0000000   1.0000000   8.0000000   1.0000000   1.0000000   8.0000000   1.0000000   1.0000000   8.0000000   1.0000000

  Atom       151         152         153         154         155         156         157         158         159         160
 IAtWgt=           1          16           1           1          16           1           1          16           1           1
 AtmWgt=   1.0078250  15.9949146   1.0078250   1.0078250  15.9949146   1.0078250   1.0078250  15.9949146   1.0078250   1.0078250
 NucSpn=           1           0           1           1           0           1           1           0           1           1
 AtZEff=   0.0000000   0.0000000   0.0000000   0.0000000   0.0000000   0.0000000   0.0000000   0.0000000   0.0000000   0.0000000
 NQMom=    0.0000000   0.0000000   0.0000000   0.0000000   0.0000000   0.0000000   0.0000000   0.0000000   0.0000000   0.0000000
 NMagM=    2.7928460   0.0000000   2.7928460   2.7928460   0.0000000   2.7928460   2.7928460   0.0000000   2.7928460   2.7928460
 AtZNuc=   1.0000000   8.0000000   1.0000000   1.0000000   8.0000000   1.0000000   1.0000000   8.0000000   1.0000000   1.0000000

  Atom       161         162         163         164         165         166         167         168         169         170
 IAtWgt=          16           1           1          16           1           1          16           1           1          16
 AtmWgt=  15.9949146   1.0078250   1.0078250  15.9949146   1.0078250   1.0078250  15.9949146   1.0078250   1.0078250  15.9949146
 NucSpn=           0           1           1           0           1           1           0           1           1           0
 AtZEff=   0.0000000   0.0000000   0.0000000   0.0000000   0.0000000   0.0000000   0.0000000   0.0000000   0.0000000   0.0000000
 NQMom=    0.0000000   0.0000000   0.0000000   0.0000000   0.0000000   0.0000000   0.0000000   0.0000000   0.0000000   0.0000000
 NMagM=    0.0000000   2.7928460   2.7928460   0.0000000   2.7928460   2.7928460   0.0000000   2.7928460   2.7928460   0.0000000
 AtZNuc=   8.0000000   1.0000000   1.0000000   8.0000000   1.0000000   1.0000000   8.0000000   1.0000000   1.0000000   8.0000000

  Atom       171         172         173         174         175         176         177         178         179         180
 IAtWgt=           1           1          16           1           1          16           1           1          16           1
 AtmWgt=   1.0078250   1.0078250  15.9949146   1.0078250   1.0078250  15.9949146   1.0078250   1.0078250  15.9949146   1.0078250
 NucSpn=           1           1           0           1           1           0           1           1           0           1
 AtZEff=   0.0000000   0.0000000   0.0000000   0.0000000   0.0000000   0.0000000   0.0000000   0.0000000   0.0000000   0.0000000
 NQMom=    0.0000000   0.0000000   0.0000000   0.0000000   0.0000000   0.0000000   0.0000000   0.0000000   0.0000000   0.0000000
 NMagM=    2.7928460   2.7928460   0.0000000   2.7928460   2.7928460   0.0000000   2.7928460   2.7928460   0.0000000   2.7928460
 AtZNuc=   1.0000000   1.0000000   8.0000000   1.0000000   1.0000000   8.0000000   1.0000000   1.0000000   8.0000000   1.0000000

  Atom       181         182         183         184         185         186         187         188         189         190
 IAtWgt=           1          16           1           1          16           1           1          16           1           1
 AtmWgt=   1.0078250  15.9949146   1.0078250   1.0078250  15.9949146   1.0078250   1.0078250  15.9949146   1.0078250   1.0078250
 NucSpn=           1           0           1           1           0           1           1           0           1           1
 AtZEff=   0.0000000   0.0000000   0.0000000   0.0000000   0.0000000   0.0000000   0.0000000   0.0000000   0.0000000   0.0000000
 NQMom=    0.0000000   0.0000000   0.0000000   0.0000000   0.0000000   0.0000000   0.0000000   0.0000000   0.0000000   0.0000000
 NMagM=    2.7928460   0.0000000   2.7928460   2.7928460   0.0000000   2.7928460   2.7928460   0.0000000   2.7928460   2.7928460
 AtZNuc=   1.0000000   8.0000000   1.0000000   1.0000000   8.0000000   1.0000000   1.0000000   8.0000000   1.0000000   1.0000000

  Atom       191         192         193         194         195         196         197         198         199         200
 IAtWgt=          16           1           1          16           1           1          16           1           1          16
 AtmWgt=  15.9949146   1.0078250   1.0078250  15.9949146   1.0078250   1.0078250  15.9949146   1.0078250   1.0078250  15.9949146
 NucSpn=           0           1           1           0           1           1           0           1           1           0
 AtZEff=   0.0000000   0.0000000   0.0000000   0.0000000   0.0000000   0.0000000   0.0000000   0.0000000   0.0000000   0.0000000
 NQMom=    0.0000000   0.0000000   0.0000000   0.0000000   0.0000000   0.0000000   0.0000000   0.0000000   0.0000000   0.0000000
 NMagM=    0.0000000   2.7928460   2.7928460   0.0000000   2.7928460   2.7928460   0.0000000   2.7928460   2.7928460   0.0000000
 AtZNuc=   8.0000000   1.0000000   1.0000000   8.0000000   1.0000000   1.0000000   8.0000000   1.0000000   1.0000000   8.0000000

  Atom       201         202         203         204         205         206         207         208         209         210
 IAtWgt=           1           1          16           1           1          16           1           1          16           1
 AtmWgt=   1.0078250   1.0078250  15.9949146   1.0078250   1.0078250  15.9949146   1.0078250   1.0078250  15.9949146   1.0078250
 NucSpn=           1           1           0           1           1           0           1           1           0           1
 AtZEff=   0.0000000   0.0000000   0.0000000   0.0000000   0.0000000   0.0000000   0.0000000   0.0000000   0.0000000   0.0000000
 NQMom=    0.0000000   0.0000000   0.0000000   0.0000000   0.0000000   0.0000000   0.0000000   0.0000000   0.0000000   0.0000000
 NMagM=    2.7928460   2.7928460   0.0000000   2.7928460   2.7928460   0.0000000   2.7928460   2.7928460   0.0000000   2.7928460
 AtZNuc=   1.0000000   1.0000000   8.0000000   1.0000000   1.0000000   8.0000000   1.0000000   1.0000000   8.0000000   1.0000000

  Atom       211         212         213         214         215         216         217         218         219         220
 IAtWgt=           1          16           1           1          16           1           1          16           1           1
 AtmWgt=   1.0078250  15.9949146   1.0078250   1.0078250  15.9949146   1.0078250   1.0078250  15.9949146   1.0078250   1.0078250
 NucSpn=           1           0           1           1           0           1           1           0           1           1
 AtZEff=   0.0000000   0.0000000   0.0000000   0.0000000   0.0000000   0.0000000   0.0000000   0.0000000   0.0000000   0.0000000
 NQMom=    0.0000000   0.0000000   0.0000000   0.0000000   0.0000000   0.0000000   0.0000000   0.0000000   0.0000000   0.0000000
 NMagM=    2.7928460   0.0000000   2.7928460   2.7928460   0.0000000   2.7928460   2.7928460   0.0000000   2.7928460   2.7928460
 AtZNuc=   1.0000000   8.0000000   1.0000000   1.0000000   8.0000000   1.0000000   1.0000000   8.0000000   1.0000000   1.0000000

  Atom       221         222         223         224         225         226         227         228         229         230
 IAtWgt=          16           1           1          16           1           1          16           1           1          16
 AtmWgt=  15.9949146   1.0078250   1.0078250  15.9949146   1.0078250   1.0078250  15.9949146   1.0078250   1.0078250  15.9949146
 NucSpn=           0           1           1           0           1           1           0           1           1           0
 AtZEff=   0.0000000   0.0000000   0.0000000   0.0000000   0.0000000   0.0000000   0.0000000   0.0000000   0.0000000   0.0000000
 NQMom=    0.0000000   0.0000000   0.0000000   0.0000000   0.0000000   0.0000000   0.0000000   0.0000000   0.0000000   0.0000000
 NMagM=    0.0000000   2.7928460   2.7928460   0.0000000   2.7928460   2.7928460   0.0000000   2.7928460   2.7928460   0.0000000
 AtZNuc=   8.0000000   1.0000000   1.0000000   8.0000000   1.0000000   1.0000000   8.0000000   1.0000000   1.0000000   8.0000000

  Atom       231         232         233         234         235         236         237         238         239         240
 IAtWgt=           1           1          16           1           1          16           1           1          16           1
 AtmWgt=   1.0078250   1.0078250  15.9949146   1.0078250   1.0078250  15.9949146   1.0078250   1.0078250  15.9949146   1.0078250
 NucSpn=           1           1           0           1           1           0           1           1           0           1
 AtZEff=   0.0000000   0.0000000   0.0000000   0.0000000   0.0000000   0.0000000   0.0000000   0.0000000   0.0000000   0.0000000
 NQMom=    0.0000000   0.0000000   0.0000000   0.0000000   0.0000000   0.0000000   0.0000000   0.0000000   0.0000000   0.0000000
 NMagM=    2.7928460   2.7928460   0.0000000   2.7928460   2.7928460   0.0000000   2.7928460   2.7928460   0.0000000   2.7928460
 AtZNuc=   1.0000000   1.0000000   8.0000000   1.0000000   1.0000000   8.0000000   1.0000000   1.0000000   8.0000000   1.0000000

  Atom       241         242         243         244         245         246         247         248         249         250
 IAtWgt=           1          16           1           1          16           1           1          16           1           1
 AtmWgt=   1.0078250  15.9949146   1.0078250   1.0078250  15.9949146   1.0078250   1.0078250  15.9949146   1.0078250   1.0078250
 NucSpn=           1           0           1           1           0           1           1           0           1           1
 AtZEff=   0.0000000   0.0000000   0.0000000   0.0000000   0.0000000   0.0000000   0.0000000   0.0000000   0.0000000   0.0000000
 NQMom=    0.0000000   0.0000000   0.0000000   0.0000000   0.0000000   0.0000000   0.0000000   0.0000000   0.0000000   0.0000000
 NMagM=    2.7928460   0.0000000   2.7928460   2.7928460   0.0000000   2.7928460   2.7928460   0.0000000   2.7928460   2.7928460
 AtZNuc=   1.0000000   8.0000000   1.0000000   1.0000000   8.0000000   1.0000000   1.0000000   8.0000000   1.0000000   1.0000000

  Atom       251         252         253         254         255         256         257         258         259         260
 IAtWgt=          16           1           1          16           1           1          16           1           1          16
 AtmWgt=  15.9949146   1.0078250   1.0078250  15.9949146   1.0078250   1.0078250  15.9949146   1.0078250   1.0078250  15.9949146
 NucSpn=           0           1           1           0           1           1           0           1           1           0
 AtZEff=   0.0000000   0.0000000   0.0000000   0.0000000   0.0000000   0.0000000   0.0000000   0.0000000   0.0000000   0.0000000
 NQMom=    0.0000000   0.0000000   0.0000000   0.0000000   0.0000000   0.0000000   0.0000000   0.0000000   0.0000000   0.0000000
 NMagM=    0.0000000   2.7928460   2.7928460   0.0000000   2.7928460   2.7928460   0.0000000   2.7928460   2.7928460   0.0000000
 AtZNuc=   8.0000000   1.0000000   1.0000000   8.0000000   1.0000000   1.0000000   8.0000000   1.0000000   1.0000000   8.0000000

  Atom       261         262         263         264         265         266         267         268         269         270
 IAtWgt=           1           1          16           1           1          16           1           1          16           1
 AtmWgt=   1.0078250   1.0078250  15.9949146   1.0078250   1.0078250  15.9949146   1.0078250   1.0078250  15.9949146   1.0078250
 NucSpn=           1           1           0           1           1           0           1           1           0           1
 AtZEff=   0.0000000   0.0000000   0.0000000   0.0000000   0.0000000   0.0000000   0.0000000   0.0000000   0.0000000   0.0000000
 NQMom=    0.0000000   0.0000000   0.0000000   0.0000000   0.0000000   0.0000000   0.0000000   0.0000000   0.0000000   0.0000000
 NMagM=    2.7928460   2.7928460   0.0000000   2.7928460   2.7928460   0.0000000   2.7928460   2.7928460   0.0000000   2.7928460
 AtZNuc=   1.0000000   1.0000000   8.0000000   1.0000000   1.0000000   8.0000000   1.0000000   1.0000000   8.0000000   1.0000000

  Atom       271         272         273         274         275         276         277         278         279         280
 IAtWgt=           1          16           1           1          16           1           1          16           1           1
 AtmWgt=   1.0078250  15.9949146   1.0078250   1.0078250  15.9949146   1.0078250   1.0078250  15.9949146   1.0078250   1.0078250
 NucSpn=           1           0           1           1           0           1           1           0           1           1
 AtZEff=   0.0000000   0.0000000   0.0000000   0.0000000   0.0000000   0.0000000   0.0000000   0.0000000   0.0000000   0.0000000
 NQMom=    0.0000000   0.0000000   0.0000000   0.0000000   0.0000000   0.0000000   0.0000000   0.0000000   0.0000000   0.0000000
 NMagM=    2.7928460   0.0000000   2.7928460   2.7928460   0.0000000   2.7928460   2.7928460   0.0000000   2.7928460   2.7928460
 AtZNuc=   1.0000000   8.0000000   1.0000000   1.0000000   8.0000000   1.0000000   1.0000000   8.0000000   1.0000000   1.0000000

  Atom       281         282         283         284         285         286         287         288         289         290
 IAtWgt=          16           1           1          16           1           1          16           1           1          16
 AtmWgt=  15.9949146   1.0078250   1.0078250  15.9949146   1.0078250   1.0078250  15.9949146   1.0078250   1.0078250  15.9949146
 NucSpn=           0           1           1           0           1           1           0           1           1           0
 AtZEff=   0.0000000   0.0000000   0.0000000   0.0000000   0.0000000   0.0000000   0.0000000   0.0000000   0.0000000   0.0000000
 NQMom=    0.0000000   0.0000000   0.0000000   0.0000000   0.0000000   0.0000000   0.0000000   0.0000000   0.0000000   0.0000000
 NMagM=    0.0000000   2.7928460   2.7928460   0.0000000   2.7928460   2.7928460   0.0000000   2.7928460   2.7928460   0.0000000
 AtZNuc=   8.0000000   1.0000000   1.0000000   8.0000000   1.0000000   1.0000000   8.0000000   1.0000000   1.0000000   8.0000000

  Atom       291         292         293         294         295         296         297         298         299         300
 IAtWgt=           1           1          16           1           1          16           1           1          16           1
 AtmWgt=   1.0078250   1.0078250  15.9949146   1.0078250   1.0078250  15.9949146   1.0078250   1.0078250  15.9949146   1.0078250
 NucSpn=           1           1           0           1           1           0           1           1           0           1
 AtZEff=   0.0000000   0.0000000   0.0000000   0.0000000   0.0000000   0.0000000   0.0000000   0.0000000   0.0000000   0.0000000
 NQMom=    0.0000000   0.0000000   0.0000000   0.0000000   0.0000000   0.0000000   0.0000000   0.0000000   0.0000000   0.0000000
 NMagM=    2.7928460   2.7928460   0.0000000   2.7928460   2.7928460   0.0000000   2.7928460   2.7928460   0.0000000   2.7928460
 AtZNuc=   1.0000000   1.0000000   8.0000000   1.0000000   1.0000000   8.0000000   1.0000000   1.0000000   8.0000000   1.0000000

  Atom       301         302         303         304         305         306         307         308         309         310
 IAtWgt=           1          16           1           1          16           1           1          16           1           1
 AtmWgt=   1.0078250  15.9949146   1.0078250   1.0078250  15.9949146   1.0078250   1.0078250  15.9949146   1.0078250   1.0078250
 NucSpn=           1           0           1           1           0           1           1           0           1           1
 AtZEff=   0.0000000   0.0000000   0.0000000   0.0000000   0.0000000   0.0000000   0.0000000   0.0000000   0.0000000   0.0000000
 NQMom=    0.0000000   0.0000000   0.0000000   0.0000000   0.0000000   0.0000000   0.0000000   0.0000000   0.0000000   0.0000000
 NMagM=    2.7928460   0.0000000   2.7928460   2.7928460   0.0000000   2.7928460   2.7928460   0.0000000   2.7928460   2.7928460
 AtZNuc=   1.0000000   8.0000000   1.0000000   1.0000000   8.0000000   1.0000000   1.0000000   8.0000000   1.0000000   1.0000000

  Atom       311         312         313         314         315         316         317         318         319         320
 IAtWgt=          16           1           1          16           1           1          16           1           1          16
 AtmWgt=  15.9949146   1.0078250   1.0078250  15.9949146   1.0078250   1.0078250  15.9949146   1.0078250   1.0078250  15.9949146
 NucSpn=           0           1           1           0           1           1           0           1           1           0
 AtZEff=   0.0000000   0.0000000   0.0000000   0.0000000   0.0000000   0.0000000   0.0000000   0.0000000   0.0000000   0.0000000
 NQMom=    0.0000000   0.0000000   0.0000000   0.0000000   0.0000000   0.0000000   0.0000000   0.0000000   0.0000000   0.0000000
 NMagM=    0.0000000   2.7928460   2.7928460   0.0000000   2.7928460   2.7928460   0.0000000   2.7928460   2.7928460   0.0000000
 AtZNuc=   8.0000000   1.0000000   1.0000000   8.0000000   1.0000000   1.0000000   8.0000000   1.0000000   1.0000000   8.0000000

  Atom       321         322         323         324         325         326         327         328         329         330
 IAtWgt=           1           1          16           1           1          16           1           1          16           1
 AtmWgt=   1.0078250   1.0078250  15.9949146   1.0078250   1.0078250  15.9949146   1.0078250   1.0078250  15.9949146   1.0078250
 NucSpn=           1           1           0           1           1           0           1           1           0           1
 AtZEff=   0.0000000   0.0000000   0.0000000   0.0000000   0.0000000   0.0000000   0.0000000   0.0000000   0.0000000   0.0000000
 NQMom=    0.0000000   0.0000000   0.0000000   0.0000000   0.0000000   0.0000000   0.0000000   0.0000000   0.0000000   0.0000000
 NMagM=    2.7928460   2.7928460   0.0000000   2.7928460   2.7928460   0.0000000   2.7928460   2.7928460   0.0000000   2.7928460
 AtZNuc=   1.0000000   1.0000000   8.0000000   1.0000000   1.0000000   8.0000000   1.0000000   1.0000000   8.0000000   1.0000000

  Atom       331         332         333         334         335         336         337         338         339         340
 IAtWgt=           1          16           1           1          16           1           1          16           1           1
 AtmWgt=   1.0078250  15.9949146   1.0078250   1.0078250  15.9949146   1.0078250   1.0078250  15.9949146   1.0078250   1.0078250
 NucSpn=           1           0           1           1           0           1           1           0           1           1
 AtZEff=   0.0000000   0.0000000   0.0000000   0.0000000   0.0000000   0.0000000   0.0000000   0.0000000   0.0000000   0.0000000
 NQMom=    0.0000000   0.0000000   0.0000000   0.0000000   0.0000000   0.0000000   0.0000000   0.0000000   0.0000000   0.0000000
 NMagM=    2.7928460   0.0000000   2.7928460   2.7928460   0.0000000   2.7928460   2.7928460   0.0000000   2.7928460   2.7928460
 AtZNuc=   1.0000000   8.0000000   1.0000000   1.0000000   8.0000000   1.0000000   1.0000000   8.0000000   1.0000000   1.0000000

  Atom       341         342         343         344         345         346         347         348         349         350
 IAtWgt=          16           1           1          16           1           1          16           1           1          16
 AtmWgt=  15.9949146   1.0078250   1.0078250  15.9949146   1.0078250   1.0078250  15.9949146   1.0078250   1.0078250  15.9949146
 NucSpn=           0           1           1           0           1           1           0           1           1           0
 AtZEff=   0.0000000   0.0000000   0.0000000   0.0000000   0.0000000   0.0000000   0.0000000   0.0000000   0.0000000   0.0000000
 NQMom=    0.0000000   0.0000000   0.0000000   0.0000000   0.0000000   0.0000000   0.0000000   0.0000000   0.0000000   0.0000000
 NMagM=    0.0000000   2.7928460   2.7928460   0.0000000   2.7928460   2.7928460   0.0000000   2.7928460   2.7928460   0.0000000
 AtZNuc=   8.0000000   1.0000000   1.0000000   8.0000000   1.0000000   1.0000000   8.0000000   1.0000000   1.0000000   8.0000000

  Atom       351         352         353         354         355         356         357         358         359         360
 IAtWgt=           1           1          16           1           1          16           1           1          16           1
 AtmWgt=   1.0078250   1.0078250  15.9949146   1.0078250   1.0078250  15.9949146   1.0078250   1.0078250  15.9949146   1.0078250
 NucSpn=           1           1           0           1           1           0           1           1           0           1
 AtZEff=   0.0000000   0.0000000   0.0000000   0.0000000   0.0000000   0.0000000   0.0000000   0.0000000   0.0000000   0.0000000
 NQMom=    0.0000000   0.0000000   0.0000000   0.0000000   0.0000000   0.0000000   0.0000000   0.0000000   0.0000000   0.0000000
 NMagM=    2.7928460   2.7928460   0.0000000   2.7928460   2.7928460   0.0000000   2.7928460   2.7928460   0.0000000   2.7928460
 AtZNuc=   1.0000000   1.0000000   8.0000000   1.0000000   1.0000000   8.0000000   1.0000000   1.0000000   8.0000000   1.0000000

  Atom       361         362         363         364         365         366         367         368         369         370
 IAtWgt=           1          16           1           1          16           1           1          16           1           1
 AtmWgt=   1.0078250  15.9949146   1.0078250   1.0078250  15.9949146   1.0078250   1.0078250  15.9949146   1.0078250   1.0078250
 NucSpn=           1           0           1           1           0           1           1           0           1           1
 AtZEff=   0.0000000   0.0000000   0.0000000   0.0000000   0.0000000   0.0000000   0.0000000   0.0000000   0.0000000   0.0000000
 NQMom=    0.0000000   0.0000000   0.0000000   0.0000000   0.0000000   0.0000000   0.0000000   0.0000000   0.0000000   0.0000000
 NMagM=    2.7928460   0.0000000   2.7928460   2.7928460   0.0000000   2.7928460   2.7928460   0.0000000   2.7928460   2.7928460
 AtZNuc=   1.0000000   8.0000000   1.0000000   1.0000000   8.0000000   1.0000000   1.0000000   8.0000000   1.0000000   1.0000000

  Atom       371         372         373         374         375         376         377         378         379         380
 IAtWgt=          16           1           1          16           1           1          16           1           1          16
 AtmWgt=  15.9949146   1.0078250   1.0078250  15.9949146   1.0078250   1.0078250  15.9949146   1.0078250   1.0078250  15.9949146
 NucSpn=           0           1           1           0           1           1           0           1           1           0
 AtZEff=   0.0000000   0.0000000   0.0000000   0.0000000   0.0000000   0.0000000   0.0000000   0.0000000   0.0000000   0.0000000
 NQMom=    0.0000000   0.0000000   0.0000000   0.0000000   0.0000000   0.0000000   0.0000000   0.0000000   0.0000000   0.0000000
 NMagM=    0.0000000   2.7928460   2.7928460   0.0000000   2.7928460   2.7928460   0.0000000   2.7928460   2.7928460   0.0000000
 AtZNuc=   8.0000000   1.0000000   1.0000000   8.0000000   1.0000000   1.0000000   8.0000000   1.0000000   1.0000000   8.0000000

  Atom       381         382         383         384         385
 IAtWgt=           1           1          16           1           1
 AtmWgt=   1.0078250   1.0078250  15.9949146   1.0078250   1.0078250
 NucSpn=           1           1           0           1           1
 AtZEff=   0.0000000   0.0000000   0.0000000   0.0000000   0.0000000
 NQMom=    0.0000000   0.0000000   0.0000000   0.0000000   0.0000000
 NMagM=    2.7928460   2.7928460   0.0000000   2.7928460   2.7928460
 AtZNuc=   1.0000000   1.0000000   8.0000000   1.0000000   1.0000000
 Leave Link  101 at Tue May 15 22:37:08 2018, MaxMem= 14763950080 cpu:        78.1
 (Enter /cm/shared/gaussian/g09.e01/intel64-sandybridge/g09/l103.exe)

 GradGradGradGradGradGradGradGradGradGradGradGradGradGradGradGradGradGrad
 Berny optimization.
 Initialization pass.
 Trust Radius=3.00D-01 FncErr=1.00D-07 GrdErr=1.00D-07
 Number of steps in this run=      2 maximum allowed number of steps=      2.
 GradGradGradGradGradGradGradGradGradGradGradGradGradGradGradGradGradGrad

 Leave Link  103 at Tue May 15 22:37:08 2018, MaxMem= 14763950080 cpu:         3.7
 (Enter /cm/shared/gaussian/g09.e01/intel64-sandybridge/g09/l202.exe)
 Symmetry turned off by external request.
 Stoichiometry    BrH256O128(1-)
 Framework group  C1[X(BrH256O128)]
 Deg. of freedom  1149
 Full point group                 C1      NOp   1
                          Input orientation:                          
 ---------------------------------------------------------------------
 Center     Atomic      Atomic             Coordinates (Angstroms)
 Number     Number       Type             X           Y           Z
 ---------------------------------------------------------------------
      1         35           0       20.000000   20.000000   20.000000
      2          8           0       17.790000   22.030000   20.710000
      3          1           0       18.350000   21.280000   20.520000
      4          1           0       18.350000   22.620000   21.220000
      5          8           0       19.420000   18.340000   17.430000
      6          1           0       19.660000   18.850000   18.200000
      7          1           0       18.810000   18.890000   16.950000
      8          8           0       20.110000   18.710000   22.950000
      9          1           0       20.220000   19.070000   22.060000
     10          1           0       19.350000   18.130000   22.880000
     11          8           0       21.580000   22.790000   19.700000
     12          1           0       20.790000   23.310000   19.590000
     13          1           0       21.260000   21.900000   19.840000
     14          8           0       17.120000   18.010000   19.670000
     15          1           0       17.890000   18.560000   19.530000
     16          1           0       16.520000   18.260000   18.970000
     17          8           0       23.340000   19.060000   18.890000
     18          1           0       22.490000   19.430000   19.130000
     19          1           0       23.760000   19.730000   18.350000
     20          8           0       18.340000   22.160000   17.770000
     21          1           0       17.530000   22.660000   17.650000
     22          1           0       18.340000   21.930000   18.700000
     23          8           0       20.260000   16.430000   20.180000
     24          1           0       19.530000   16.920000   20.570000
     25          1           0       20.140000   16.550000   19.230000
     26          8           0       20.600000   21.230000   16.250000
     27          1           0       21.180000   21.980000   16.390000
     28          1           0       19.780000   21.490000   16.670000
     29          8           0       21.520000   18.460000   15.670000
     30          1           0       21.340000   19.370000   15.410000
     31          1           0       21.220000   18.410000   16.580000
     32          8           0       24.020000   17.810000   21.250000
     33          1           0       24.590000   17.100000   20.930000
     34          1           0       23.840000   18.330000   20.470000
     35          8           0       15.380000   21.300000   21.160000
     36          1           0       15.260000   20.400000   20.850000
     37          1           0       16.140000   21.620000   20.670000
     38          8           0       22.530000   17.740000   23.680000
     39          1           0       21.630000   17.900000   23.390000
     40          1           0       23.020000   17.630000   22.870000
     41          8           0       18.020000   17.160000   22.720000
     42          1           0       17.620000   16.660000   23.420000
     43          1           0       17.610000   16.830000   21.920000
     44          8           0       16.450000   19.230000   23.370000
     45          1           0       16.590000   20.010000   22.830000
     46          1           0       17.020000   18.570000   22.990000
     47          8           0       22.630000   23.190000   17.150000
     48          1           0       22.480000   24.100000   16.880000
     49          1           0       22.430000   23.180000   18.080000
     50          8           0       19.240000   23.870000   22.190000
     51          1           0       18.780000   24.640000   22.520000
     52          1           0       20.150000   24.000000   22.470000
     53          8           0       25.130000   20.320000   21.480000
     54          1           0       25.620000   20.770000   22.170000
     55          1           0       24.220000   20.590000   21.620000
     56          8           0       20.570000   15.430000   23.070000
     57          1           0       20.230000   15.740000   23.910000
     58          1           0       20.360000   16.140000   22.460000
     59          8           0       23.810000   23.270000   21.840000
     60          1           0       23.500000   24.160000   22.030000
     61          1           0       23.310000   23.010000   21.060000
     62          8           0       15.800000   19.580000   17.820000
     63          1           0       15.920000   20.520000   17.900000
     64          1           0       16.440000   19.310000   17.160000
     65          8           0       20.090000   24.620000   18.580000
     66          1           0       20.270000   25.500000   18.260000
     67          1           0       19.210000   24.420000   18.270000
     68          8           0       20.130000   21.020000   24.780000
     69          1           0       21.070000   21.000000   24.610000
     70          1           0       19.870000   20.090000   24.810000
     71          8           0       22.810000   16.680000   17.620000
     72          1           0       22.520000   17.230000   16.890000
     73          1           0       23.460000   17.210000   18.070000
     74          8           0       22.820000   14.960000   19.620000
     75          1           0       22.780000   14.940000   18.660000
     76          1           0       22.460000   15.810000   19.860000
     77          8           0       24.130000   20.900000   16.980000
     78          1           0       23.910000   20.560000   16.110000
     79          1           0       23.610000   21.690000   17.070000
     80          8           0       14.590000   18.880000   20.400000
     81          1           0       14.430000   18.780000   19.460000
     82          1           0       15.300000   18.270000   20.590000
     83          8           0       18.120000   15.720000   16.900000
     84          1           0       18.780000   15.030000   16.900000
     85          1           0       18.600000   16.500000   16.630000
     86          8           0       22.870000   19.930000   25.020000
     87          1           0       23.810000   19.940000   25.190000
     88          1           0       22.720000   19.100000   24.570000
     89          8           0       18.830000   14.070000   20.940000
     90          1           0       18.870000   14.230000   20.000000
     91          1           0       19.400000   14.740000   21.320000
     92          8           0       19.300000   22.170000   14.050000
     93          1           0       19.770000   21.780000   14.790000
     94          1           0       19.720000   23.010000   13.910000
     95          8           0       18.470000   23.100000   25.150000
     96          1           0       18.830000   22.220000   25.190000
     97          1           0       18.460000   23.320000   24.220000
     98          8           0       15.480000   22.290000   17.560000
     99          1           0       14.580000   22.560000   17.760000
    100          1           0       15.610000   22.520000   16.640000
    101          8           0       16.830000   18.710000   15.430000
    102          1           0       16.430000   19.110000   14.660000
    103          1           0       16.640000   17.780000   15.340000
    104          8           0       22.860000   22.920000   24.640000
    105          1           0       23.130000   22.010000   24.770000
    106          1           0       23.090000   23.110000   23.730000
    107          8           0       20.290000   16.510000   14.250000
    108          1           0       20.590000   17.240000   14.800000
    109          1           0       21.100000   16.120000   13.920000
    110          8           0       21.530000   14.090000   16.880000
    111          1           0       21.300000   13.910000   15.960000
    112          1           0       21.580000   15.040000   16.930000
    113          8           0       15.540000   15.450000   18.390000
    114          1           0       15.430000   14.520000   18.600000
    115          1           0       16.420000   15.510000   18.030000
    116          8           0       17.520000   24.910000   17.050000
    117          1           0       16.710000   25.060000   16.560000
    118          1           0       18.150000   24.610000   16.390000
    119          8           0       12.990000   21.350000   19.170000
    120          1           0       12.620000   21.000000   19.980000
    121          1           0       13.940000   21.220000   19.260000
    122          8           0       25.550000   23.570000   17.240000
    123          1           0       25.330000   23.590000   16.300000
    124          1           0       24.740000   23.300000   17.670000
    125          8           0       26.880000   19.630000   19.430000
    126          1           0       26.270000   19.860000   20.130000
    127          1           0       27.230000   20.470000   19.130000
    128          8           0       13.970000   18.260000   23.070000
    129          1           0       13.990000   18.280000   22.110000
    130          1           0       14.890000   18.340000   23.330000
    131          8           0       14.570000   24.150000   21.150000
    132          1           0       15.160000   24.070000   20.400000
    133          1           0       14.340000   23.250000   21.380000
    134          8           0       20.440000   27.020000   20.670000
    135          1           0       20.080000   27.380000   19.860000
    136          1           0       19.820000   26.330000   20.930000
    137          8           0       14.690000   15.910000   21.200000
    138          1           0       14.990000   15.940000   20.290000
    139          1           0       14.300000   15.040000   21.290000
    140          8           0       19.220000   13.320000   18.340000
    141          1           0       19.450000   12.620000   18.950000
    142          1           0       20.050000   13.740000   18.140000
    143          8           0       26.010000   17.590000   23.430000
    144          1           0       25.480000   17.560000   24.220000
    145          1           0       25.630000   18.300000   22.910000
    146          8           0       16.360000   23.070000   14.800000
    147          1           0       16.980000   22.360000   14.640000
    148          1           0       16.070000   23.340000   13.920000
    149          8           0       25.570000   15.720000   19.860000
    150          1           0       24.850000   15.090000   19.790000
    151          1           0       25.410000   16.330000   19.150000
    152          8           0       25.930000   17.820000   17.940000
    153          1           0       26.570000   17.730000   17.230000
    154          1           0       26.300000   18.500000   18.500000
    155          8           0       26.640000   20.290000   16.330000
    156          1           0       27.190000   20.660000   17.030000
    157          1           0       25.750000   20.350000   16.670000
    158          8           0       22.550000   13.460000   21.940000
    159          1           0       22.580000   13.930000   21.110000
    160          1           0       22.100000   14.050000   22.540000
    161          8           0       17.930000   26.380000   21.600000
    162          1           0       17.610000   26.220000   20.720000
    163          1           0       17.500000   27.180000   21.880000
    164          8           0       22.580000   16.040000   26.030000
    165          1           0       23.210000   16.580000   26.490000
    166          1           0       22.200000   16.620000   25.370000
    167          8           0       19.350000   16.210000   25.520000
    168          1           0       18.940000   16.780000   26.170000
    169          1           0       19.510000   15.390000   25.990000
    170          8           0       16.340000   25.780000   19.740000
    171          1           0       15.610000   26.400000   19.770000
    172          1           0       16.500000   25.650000   18.800000
    173          8           0       21.370000   19.010000   27.180000
    174          1           0       21.970000   19.130000   26.440000
    175          1           0       21.710000   19.600000   27.860000
    176          8           0       13.540000   17.290000   17.970000
    177          1           0       13.960000   18.050000   17.570000
    178          1           0       14.230000   16.640000   18.040000
    179          8           0       23.480000   20.410000   14.140000
    180          1           0       24.030000   20.670000   13.400000
    181          1           0       23.730000   19.510000   14.330000
    182          8           0       21.030000   23.080000   26.700000
    183          1           0       21.620000   22.910000   25.960000
    184          1           0       20.220000   23.370000   26.300000
    185          8           0       20.490000   24.710000   14.770000
    186          1           0       21.230000   24.200000   14.450000
    187          1           0       20.810000   25.150000   15.550000
    188          8           0       14.240000   20.270000   25.180000
    189          1           0       14.560000   20.010000   24.310000
    190          1           0       14.370000   21.220000   25.210000
    191          8           0       26.710000   23.610000   21.660000
    192          1           0       26.910000   22.890000   22.260000
    193          1           0       25.770000   23.550000   21.530000
    194          8           0       16.060000   16.190000   15.070000
    195          1           0       15.150000   15.930000   14.920000
    196          1           0       16.320000   15.720000   15.860000
    197          8           0       16.060000   25.190000   23.350000
    198          1           0       15.500000   24.730000   22.730000
    199          1           0       16.620000   25.750000   22.810000
    200          8           0       22.840000   23.380000   13.860000
    201          1           0       23.260000   22.640000   14.300000
    202          1           0       22.480000   23.010000   13.060000
    203          8           0       23.540000   26.610000   20.110000
    204          1           0       23.560000   26.260000   21.000000
    205          1           0       22.610000   26.600000   19.870000
    206          8           0       15.200000   23.090000   24.770000
    207          1           0       15.590000   23.880000   24.390000
[...]
   Z335      36.15046   0.00718   0.00000   0.00183   0.00231  36.15277
   X336      24.52865   0.00290   0.00000   0.00249   0.00316  24.53181
   Y336      47.35654  -0.00428   0.00000  -0.00534  -0.00482  47.35172
   Z336      37.66224   0.00344   0.00000   0.00299   0.00346  37.66570
   X337      24.03732  -0.00507   0.00000  -0.01312  -0.01253  24.02478
   Y337      46.69513  -0.01569   0.00000  -0.01292  -0.01237  46.68276
   Z337      34.92214  -0.00852   0.00000  -0.00266  -0.00218  34.91996
   X338      47.24315  -0.01622   0.00000  -0.01235  -0.01163  47.23152
   Y338      49.75649   0.01008   0.00000   0.00927   0.00837  49.76486
   Z338      31.57732  -0.00942   0.00000  -0.01266  -0.01260  31.56472
   X339      48.60376   0.00810   0.00000  -0.00132  -0.00065  48.60311
   Y339      48.86832  -0.00207   0.00000   0.00647   0.00549  48.87380
   Z339      32.35211   0.00991   0.00000   0.00973   0.00976  32.36187
   X340      47.71558   0.01013   0.00000   0.01506   0.01576  47.73134
   Y340      49.88877   0.00164   0.00000   0.00360   0.00267  49.89144
   Z340      29.83878  -0.00790   0.00000  -0.00993  -0.00989  29.82888
   X341      38.11578  -0.00376   0.00000  -0.00593  -0.00468  38.11109
   Y341      55.08552   0.02191   0.00000   0.01748   0.01717  55.10269
   Z341      42.74561  -0.02183   0.00000  -0.01612  -0.01591  42.72969
   X342      38.00239  -0.00124   0.00000  -0.00229  -0.00104  38.00135
   Y342      54.46191  -0.01060   0.00000  -0.00602  -0.00632  54.45559
   Z342      44.42746   0.01656   0.00000   0.00430   0.00451  44.43197
   X343      38.75828   0.00004   0.00000  -0.00391  -0.00277  38.75552
   Y343      53.68712  -0.00641   0.00000  -0.00210  -0.00245  53.68467
   Z343      41.78184  -0.00376   0.00000  -0.00431  -0.00412  41.77773
   X344      39.40079  -0.03100   0.00000  -0.01975  -0.02069  39.38010
   Y344      21.35391   0.00058   0.00000  -0.00085  -0.00124  21.35266
   Z344      37.28430   0.00492   0.00000   0.00325   0.00350  37.28780
   X345      41.12044   0.02258   0.00000   0.00882   0.00786  41.12830
   Y345      21.22162   0.00317   0.00000   0.00813   0.00762  21.22924
   Z345      36.79297  -0.01305   0.00000  -0.01504  -0.01482  36.77815
   X346      39.41969   0.00351   0.00000   0.00543   0.00452  39.42420
   Y346      21.31611   0.00462   0.00000   0.00833   0.00794  21.32405
   Z346      39.09843   0.00524   0.00000   0.00609   0.00634  39.10477
   X347      23.09245  -0.01627   0.00000  -0.01412  -0.01352  23.07893
   Y347      43.42591   0.00037   0.00000  -0.00192  -0.00128  43.42462
   Z347      46.73293  -0.00396   0.00000  -0.00729  -0.00679  46.72614
   X348      24.62313   0.00901   0.00000   0.00417   0.00471  24.62784
   Y348      42.46215   0.00140   0.00000   0.00530   0.00583  42.46798
   Z348      46.67624  -0.00068   0.00000  -0.00150  -0.00102  46.67521
   X349      23.64047   0.00639   0.00000   0.00669   0.00739  23.64787
   Y349      45.14556  -0.00235   0.00000  -0.00621  -0.00561  45.13995
   Z349      46.95969   0.00021   0.00000  -0.00030   0.00019  46.95988
   X350      52.28872   0.00820   0.00000   0.00524   0.00588  52.29460
   Y350      48.05574   0.00975   0.00000   0.00309   0.00188  48.05762
   Z350      33.31587  -0.00865   0.00000  -0.00927  -0.00931  33.30656
   X351      53.30917  -0.00067   0.00000  -0.00434  -0.00370  53.30547
   Y351      47.52661  -0.00031   0.00000   0.00371   0.00245  47.52906
   Z351      34.71427   0.00733   0.00000   0.00714   0.00709  34.72136
   X352      51.02261  -0.00799   0.00000  -0.00349  -0.00293  51.01968
   Y352      46.77072  -0.01545   0.00000  -0.01351  -0.01464  46.75609
   Z352      33.16469   0.00211   0.00000   0.00358   0.00356  33.16826
   X353      50.15333  -0.00058   0.00000   0.00187   0.00275  50.15608
   Y353      48.94391   0.02177   0.00000   0.01042   0.00936  48.95327
   Z353      43.42591   0.01796   0.00000   0.01157   0.01157  43.43748
   X354      51.77850   0.00007   0.00000   0.00218   0.00311  51.78160
   Y354      49.60531   0.00533   0.00000   0.01080   0.00965  49.61496
   Z354      43.89834  -0.00135   0.00000  -0.00163  -0.00166  43.89668
   X355      50.53128   0.00507   0.00000   0.00125   0.00202  50.53329
   Y355      47.46992  -0.02766   0.00000  -0.01893  -0.02001  47.44991
   Z355      42.44325  -0.01700   0.00000  -0.01058  -0.01058  42.43267
   X356      52.11865   0.00273   0.00000  -0.00043  -0.00102  52.11763
   Y356      28.13802  -0.01827   0.00000  -0.01366  -0.01485  28.12317
   Z356      33.59933  -0.01632   0.00000  -0.01247  -0.01246  33.58687
   X357      51.70291  -0.00286   0.00000   0.00059   0.00008  51.70298
   Y357      28.98840   0.00742   0.00000   0.00166   0.00050  28.98889
   Z357      35.13001   0.01138   0.00000   0.00362   0.00363  35.13364
   X358      51.91078   0.00080   0.00000   0.00278   0.00224  51.91302
   Y358      29.38524   0.00744   0.00000   0.00971   0.00852  29.39376
   Z358      32.29542   0.00268   0.00000   0.00497   0.00497  32.30039
   X359      36.92525  -0.01044   0.00000  -0.00840  -0.00786  36.91739
   Y359      49.20847   0.00261   0.00000   0.00405   0.00378  49.21225
   Z359      23.64047  -0.00595   0.00000  -0.00497  -0.00473  23.63574
   X360      37.49217   0.00495   0.00000   0.00380   0.00435  37.49652
   Y360      48.98170  -0.00680   0.00000  -0.01050  -0.01081  48.97089
   Z360      25.36012   0.00350   0.00000  -0.00142  -0.00119  25.35894
   X361      38.45593   0.00574   0.00000   0.00349   0.00401  38.45994
   Y361      49.30295   0.00089   0.00000   0.00167   0.00130  49.30425
   Z361      22.67671   0.00027   0.00000   0.00194   0.00215  22.67886
   X362      47.48882   0.00094   0.00000  -0.00045  -0.00124  47.48758
   Y362      23.64047   0.00196   0.00000   0.00503   0.00413  23.64460
   Z362      37.77563  -0.02038   0.00000  -0.01083  -0.01073  37.76490
   X363      46.61954  -0.00970   0.00000  -0.00636  -0.00712  46.61242
   Y363      23.65937   0.00309   0.00000   0.00207   0.00122  23.66060
   Z363      39.34410   0.01968   0.00000   0.01262   0.01274  39.35683
   X364      49.24626   0.00530   0.00000   0.00332   0.00253  49.24879
   Y364      23.60268   0.00131   0.00000   0.00301   0.00201  23.60468
   Z364      38.21026   0.00407   0.00000   0.00371   0.00377  38.21404
   X365      38.30475   0.02472   0.00000   0.02613   0.02539  38.33014
   Y365      29.21517   0.00583   0.00000  -0.00014  -0.00050  29.21466
   Z365      21.63736  -0.00415   0.00000   0.00341   0.00366  21.64103
   X366      37.60555  -0.01108   0.00000  -0.01009  -0.01094  37.59461
   Y366      27.57110  -0.00871   0.00000  -0.00129  -0.00161  27.56950
   Z366      21.42949  -0.00052   0.00000  -0.00186  -0.00159  21.42790
   X367      37.32209  -0.01401   0.00000  -0.01434  -0.01501  37.30708
   Y367      29.97106   0.00071   0.00000  -0.00130  -0.00160  29.96946
   Z367      22.96017   0.00224   0.00000  -0.00649  -0.00622  22.95395
   X368      41.46059  -0.00427   0.00000  -0.00524  -0.00515  41.45544
   Y368      42.36766   0.00000   0.00000  -0.00153  -0.00209  42.36557
   Z368      22.03421  -0.00480   0.00000  -0.00955  -0.00938  22.02483
   X369      42.32987   0.00244   0.00000   0.00084   0.00083  42.33070
   Y369      41.25272  -0.01045   0.00000  -0.01369  -0.01430  41.23842
   Z369      20.90037  -0.00196   0.00000  -0.00159  -0.00143  20.89894
   X370      40.36455  -0.00542   0.00000  -0.00819  -0.00806  40.35649
   Y370      43.33142   0.00227   0.00000   0.00280   0.00231  43.33373
   Z370      20.95706  -0.00195   0.00000  -0.00432  -0.00414  20.95293
   X371      43.53929   0.02882   0.00000   0.01973   0.02051  43.55980
   Y371      44.21959  -0.00052   0.00000  -0.00182  -0.00244  44.21715
   Z371      54.06506   0.00845   0.00000   0.00443   0.00456  54.06963
   X372      42.46215  -0.01905   0.00000  -0.01537  -0.01461  42.44753
   Y372      44.21959   0.00189   0.00000   0.00411   0.00355  44.22314
   Z372      52.62887  -0.00943   0.00000   0.00042   0.00057  52.62944
   X373      42.44325  -0.01059   0.00000  -0.00803  -0.00724  42.43601
   Y373      44.01172  -0.00124   0.00000  -0.00027  -0.00083  44.01090
   Z373      55.48236   0.00339   0.00000  -0.00111  -0.00095  55.48140
   X374      56.20046   0.00906   0.00000   0.00499   0.00495  56.20540
   Y374      36.16936   0.01646   0.00000   0.01668   0.01524  36.18459
   Z374      36.49061  -0.00907   0.00000  -0.00303  -0.00311  36.48750
   X375      54.46191  -0.01044   0.00000  -0.00429  -0.00436  54.45755
   Y375      35.67803  -0.00732   0.00000  -0.00569  -0.00703  35.67100
   Z375      36.60400   0.00485   0.00000   0.00516   0.00510  36.60910
   X376      57.03193  -0.00042   0.00000  -0.00354  -0.00362  57.02832
   Y376      35.16780  -0.00993   0.00000  -0.00803  -0.00952  35.15828
   Z376      37.73783   0.00582   0.00000   0.00088   0.00078  37.73861
   X377      54.38632   0.01011   0.00000   0.00502   0.00489  54.39121
   Y377      32.59778  -0.00753   0.00000  -0.00307  -0.00439  32.59339
   Z377      43.67157   0.00663   0.00000   0.01528   0.01523  43.68680
   X378      52.64777  -0.01532   0.00000  -0.01196  -0.01206  52.63571
   Y378      32.91903   0.00422   0.00000   0.00488   0.00368  32.92271
   Z378      44.08731   0.00624   0.00000   0.00725   0.00723  44.09454
   X379      55.18000   0.00123   0.00000   0.00051   0.00048  55.18049
   Y379      34.22294   0.00532   0.00000   0.00558   0.00421  34.22715
   Z379      43.74716  -0.00341   0.00000  -0.00614  -0.00620  43.74096
   X380      32.67336  -0.01268   0.00000  -0.01298  -0.01366  32.65970
   Y380      22.86569  -0.00773   0.00000  -0.00693  -0.00689  22.85879
   Z380      46.27939   0.02596   0.00000   0.01722   0.01759  46.29699
   X381      32.63557  -0.00023   0.00000  -0.00319  -0.00389  32.63168
   Y381      23.13025   0.00520   0.00000   0.00421   0.00424  23.13449
   Z381      44.50305  -0.01752   0.00000  -0.00628  -0.00591  44.49714
   X382      34.37412   0.00082   0.00000  -0.00248  -0.00313  34.37099
   Y382      23.30032   0.00332   0.00000   0.00403   0.00397  23.30429
   Z382      46.77072  -0.00968   0.00000  -0.01415  -0.01382  46.75691
   X383      47.90456  -0.01950   0.00000  -0.01500  -0.01415  47.89041
   Y383      47.24315  -0.01075   0.00000  -0.00253  -0.00344  47.23972
   Z383      47.77228   0.01592   0.00000   0.01002   0.01006  47.78234
   X384      48.79273   0.01343   0.00000   0.00720   0.00807  48.80080
   Y384      47.90456   0.00669   0.00000   0.00075  -0.00021  47.90434
   Z384      46.35498  -0.01997   0.00000  -0.01219  -0.01217  46.34282
   X385      48.83052   0.00350   0.00000   0.00084   0.00176  48.83228
   Y385      47.82897   0.00286   0.00000   0.00251   0.00155  47.83052
   Z385      49.20847   0.00701   0.00000   0.00713   0.00716  49.21563
         Item               Value     Threshold  Converged?
 Maximum Force            0.039126     0.000450     NO 
 RMS     Force            0.011083     0.000300     NO 
 Maximum Displacement     0.032558     0.001800     NO 
 RMS     Displacement     0.008814     0.001200     NO 
 Predicted change in Energy=-7.728971D-02
 GradGradGradGradGradGradGradGradGradGradGradGradGradGradGradGradGradGrad

 Leave Link  103 at Wed May 16 01:14:11 2018, MaxMem= 14763950080 cpu:      2750.6
 (Enter /cm/shared/gaussian/g09.e01/intel64-sandybridge/g09/l9999.exe)
 1\1\GINC-POPLE04\Force\RPBE1PBE\CC-pVDZ\Br1H256O128(1-)\M.PELUSO\16-Ma
 y-2018\0\\#p PBE1PBE/cc-pvDZ force Counterpoise=2 noSymm\\forces on ch
 loride comput - NWATER: 128\\-1,1\Br,20.,20.,20.\O,17.79,22.03,20.71\H
 ,18.35,21.28,20.52\H,18.35,22.62,21.22\O,19.42,18.34,17.43\H,19.66,18.
 85,18.2\H,18.81,18.89,16.95\O,20.11,18.71,22.95\H,20.22,19.07,22.06\H,
 19.35,18.13,22.88\O,21.58,22.79,19.7\H,20.79,23.31,19.59\H,21.26,21.9,
 19.84\O,17.12,18.01,19.67\H,17.89,18.56,19.53\H,16.52,18.26,18.97\O,23
 .34,19.06,18.89\H,22.49,19.43,19.13\H,23.76,19.73,18.35\O,18.34,22.16,
 17.77\H,17.53,22.66,17.65\H,18.34,21.93,18.7\O,20.26,16.43,20.18\H,19.
 53,16.92,20.57\H,20.14,16.55,19.23\O,20.6,21.23,16.25\H,21.18,21.98,16
 .39\H,19.78,21.49,16.67\O,21.52,18.46,15.67\H,21.34,19.37,15.41\H,21.2
 2,18.41,16.58\O,24.02,17.81,21.25\H,24.59,17.1,20.93\H,23.84,18.33,20.
 47\O,15.38,21.3,21.16\H,15.26,20.4,20.85\H,16.14,21.62,20.67\O,22.53,1
 7.74,23.68\H,21.63,17.9,23.39\H,23.02,17.63,22.87\O,18.02,17.16,22.72\
 H,17.62,16.66,23.42\H,17.61,16.83,21.92\O,16.45,19.23,23.37\H,16.59,20
 .01,22.83\H,17.02,18.57,22.99\O,22.63,23.19,17.15\H,22.48,24.1,16.88\H
 ,22.43,23.18,18.08\O,19.24,23.87,22.19\H,18.78,24.64,22.52\H,20.15,24.
 ,22.47\O,25.13,20.32,21.48\H,25.62,20.77,22.17\H,24.22,20.59,21.62\O,2
 0.57,15.43,23.07\H,20.23,15.74,23.91\H,20.36,16.14,22.46\O,23.81,23.27
 ,21.84\H,23.5,24.16,22.03\H,23.31,23.01,21.06\O,15.8,19.58,17.82\H,15.
 92,20.52,17.9\H,16.44,19.31,17.16\O,20.09,24.62,18.58\H,20.27,25.5,18.
 26\H,19.21,24.42,18.27\O,20.13,21.02,24.78\H,21.07,21.,24.61\H,19.87,2
 0.09,24.81\O,22.81,16.68,17.62\H,22.52,17.23,16.89\H,23.46,17.21,18.07
 \O,22.82,14.96,19.62\H,22.78,14.94,18.66\H,22.46,15.81,19.86\O,24.13,2
 0.9,16.98\H,23.91,20.56,16.11\H,23.61,21.69,17.07\O,14.59,18.88,20.4\H
 ,14.43,18.78,19.46\H,15.3,18.27,20.59\O,18.12,15.72,16.9\H,18.78,15.03
 ,16.9\H,18.6,16.5,16.63\O,22.87,19.93,25.02\H,23.81,19.94,25.19\H,22.7
 2,19.1,24.57\O,18.83,14.07,20.94\H,18.87,14.23,20.\H,19.4,14.74,21.32\
 O,19.3,22.17,14.05\H,19.77,21.78,14.79\H,19.72,23.01,13.91\O,18.47,23.
 1,25.15\H,18.83,22.22,25.19\H,18.46,23.32,24.22\O,15.48,22.29,17.56\H,
 14.58,22.56,17.76\H,15.61,22.52,16.64\O,16.83,18.71,15.43\H,16.43,19.1
 1,14.66\H,16.64,17.78,15.34\O,22.86,22.92,24.64\H,23.13,22.01,24.77\H,
 23.09,23.11,23.73\O,20.29,16.51,14.25\H,20.59,17.24,14.8\H,21.1,16.12,
 13.92\O,21.53,14.09,16.88\H,21.3,13.91,15.96\H,21.58,15.04,16.93\O,15.
 54,15.45,18.39\H,15.43,14.52,18.6\H,16.42,15.51,18.03\O,17.52,24.91,17
 .05\H,16.71,25.06,16.56\H,18.15,24.61,16.39\O,12.99,21.35,19.17\H,12.6
 2,21.,19.98\H,13.94,21.22,19.26\O,25.55,23.57,17.24\H,25.33,23.59,16.3
 \H,24.74,23.3,17.67\O,26.88,19.63,19.43\H,26.27,19.86,20.13\H,27.23,20
 .47,19.13\O,13.97,18.26,23.07\H,13.99,18.28,22.11\H,14.89,18.34,23.33\
 O,14.57,24.15,21.15\H,15.16,24.07,20.4\H,14.34,23.25,21.38\O,20.44,27.
 02,20.67\H,20.08,27.38,19.86\H,19.82,26.33,20.93\O,14.69,15.91,21.2\H,
 14.99,15.94,20.29\H,14.3,15.04,21.29\O,19.22,13.32,18.34\H,19.45,12.62
 ,18.95\H,20.05,13.74,18.14\O,26.01,17.59,23.43\H,25.48,17.56,24.22\H,2
 5.63,18.3,22.91\O,16.36,23.07,14.8\H,16.98,22.36,14.64\H,16.07,23.34,1
 3.92\O,25.57,15.72,19.86\H,24.85,15.09,19.79\H,25.41,16.33,19.15\O,25.
 93,17.82,17.94\H,26.57,17.73,17.23\H,26.3,18.5,18.5\O,26.64,20.29,16.3
 3\H,27.19,20.66,17.03\H,25.75,20.35,16.67\O,22.55,13.46,21.94\H,22.58,
 13.93,21.11\H,22.1,14.05,22.54\O,17.93,26.38,21.6\H,17.61,26.22,20.72\
 H,17.5,27.18,21.88\O,22.58,16.04,26.03\H,23.21,16.58,26.49\H,22.2,16.6
 2,25.37\O,19.35,16.21,25.52\H,18.94,16.78,26.17\H,19.51,15.39,25.99\O,
 16.34,25.78,19.74\H,15.61,26.4,19.77\H,16.5,25.65,18.8\O,21.37,19.01,2
 7.18\H,21.97,19.13,26.44\H,21.71,19.6,27.86\O,13.54,17.29,17.97\H,13.9
 6,18.05,17.57\H,14.23,16.64,18.04\O,23.48,20.41,14.14\H,24.03,20.67,13
 .4\H,23.73,19.51,14.33\O,21.03,23.08,26.7\H,21.62,22.91,25.96\H,20.22,
 23.37,26.3\O,20.49,24.71,14.77\H,21.23,24.2,14.45\H,20.81,25.15,15.55\
 O,14.24,20.27,25.18\H,14.56,20.01,24.31\H,14.37,21.22,25.21\O,26.71,23
 .61,21.66\H,26.91,22.89,22.26\H,25.77,23.55,21.53\O,16.06,16.19,15.07\
 H,15.15,15.93,14.92\H,16.32,15.72,15.86\O,16.06,25.19,23.35\H,15.5,24.
 73,22.73\H,16.62,25.75,22.81\O,22.84,23.38,13.86\H,23.26,22.64,14.3\H,
 22.48,23.01,13.06\O,23.54,26.61,20.11\H,23.56,26.26,21.\H,22.61,26.6,1
 9.87\O,15.2,23.09,24.77\H,15.59,23.88,24.39\H,15.94,22.65,25.19\O,16.3
 8,20.41,13.35\H,16.23,21.07,12.68\H,17.32,20.23,13.32\O,17.19,21.56,27
 .42\H,17.78,21.2,26.77\H,17.18,20.91,28.13\O,15.86,15.17,23.79\H,15.39
 ,14.62,24.41\H,15.17,15.64,23.31\O,22.38,26.08,16.67\H,23.27,26.1,16.3
 3\H,22.07,26.98,16.6\O,24.18,17.82,13.89\H,24.71,17.46,13.17\H,23.52,1
 7.15,14.06\O,17.95,16.2,13.05\H,18.73,16.38,13.57\H,17.28,15.98,13.69\
 O,23.82,25.91,22.57\H,24.77,25.89,22.72\H,23.44,25.93,23.45\O,18.79,27
 .41,17.96\H,18.34,28.26,17.96\H,18.26,26.87,17.38\O,19.92,12.71,24.38\
 H,20.25,13.52,24.01\H,20.15,12.75,25.31\O,19.16,19.95,11.66\H,19.82,19
 .26,11.73\H,19.32,20.51,12.42\O,22.54,25.76,24.89\H,23.27,26.32,25.18\
 H,22.75,24.89,25.24\O,17.37,11.84,21.66\H,18.07,11.28,22.01\H,17.83,12
 .6,21.3\O,22.89,19.4,11.71\H,22.64,19.52,12.62\H,22.36,18.67,11.4\O,17
 .53,12.87,16.31\H,18.08,12.95,17.09\H,16.9,12.18,16.52\O,25.62,20.21,2
 5.54\H,25.57,21.11,25.86\H,25.98,19.71,26.27\O,25.72,22.52,14.58\H,25.
 62,22.33,13.65\H,25.88,21.66,14.98\O,12.96,23.22,17.44\H,12.55,23.02,1
 6.6\H,12.66,22.52,18.02\O,18.55,26.25,26.26\H,17.65,26.52,26.11\H,18.6
 6,25.45,25.73\O,27.91,21.87,18.46\H,27.37,22.46,17.95\H,28.79,22.26,18
 .43\O,25.95,14.45,22.63\H,26.02,14.99,21.84\H,26.09,15.06,23.35\O,13.0
 3,20.66,14.86\H,13.81,20.12,14.73\H,12.54,20.2,15.55\O,22.75,11.8,17.7
 7\H,23.62,12.02,17.46\H,22.2,12.54,17.49\O,28.17,16.49,20.62\H,28.08,1
 6.62,21.56\H,27.28,16.28,20.32\O,14.75,25.91,16.92\H,14.27,25.2,17.34\
 H,14.47,26.7,17.39\O,11.45,19.98,17.04\H,10.76,19.45,17.43\H,12.07,20.
 13,17.75\O,17.33,17.18,27.3\H,16.4,17.38,27.22\H,17.71,17.95,27.73\O,1
 4.61,18.04,26.9\H,14.35,18.59,27.64\H,14.48,18.59,26.13\O,11.76,20.73,
 21.61\H,11.74,20.01,22.24\H,11.46,21.49,22.1\O,27.42,21.69,23.64\H,27.
 63,21.03,24.31\H,28.24,22.15,23.5\O,25.18,13.26,17.26\H,26.06,13.62,17
 .34\H,24.81,13.32,18.14\O,22.37,15.02,13.58\H,22.91,15.13,12.8\H,21.7,
 14.39,13.32\O,23.87,13.13,24.78\H,23.34,13.26,23.99\H,24.77,13.08,24.4
 6\O,19.6,22.1,28.94\H,20.06,22.44,28.17\H,18.82,22.66,29.02\O,11.72,15
 .68,19.82\H,11.69,16.33,19.12\H,12.57,15.81,20.24\O,27.94,17.88,16.28\
 H,27.57,18.76,16.22\H,28.01,17.59,15.37\O,12.04,16.,23.12\H,12.17,15.1
 8,22.65\H,12.9,16.4,23.15\O,13.32,17.91,14.94\H,12.55,17.45,14.61\H,14
 .02,17.69,14.32\O,21.11,28.52,16.57\H,20.38,27.94,16.78\H,20.81,29.39,
 16.86\O,19.6,19.34,29.24\H,20.19,19.05,28.53\H,19.82,20.26,29.37\O,20.
 31,27.68,24.77\H,19.89,27.2,25.49\H,21.11,27.18,24.59\O,24.18,18.04,27
 .41\H,25.11,18.25,27.34\H,23.77,18.86,27.68\O,15.22,12.69,19.51\H,15.6
 4,12.09,18.89\H,15.68,12.53,20.34\O,12.55,25.39,19.13\H,12.98,25.06,19
 .93\H,12.72,24.71,18.48\O,25.,26.33,16.71\H,25.72,25.86,17.12\H,25.25,
 26.4,15.79\O,20.17,29.15,22.62\H,20.11,28.82,23.51\H,20.51,28.41,22.11
 \O,20.85,11.3,19.73\H,21.76,11.23,19.47\H,20.86,11.28,20.69\O,12.22,22
 .98,24.73\H,13.03,22.47,24.7\H,12.51,23.89,24.85\O,27.67,25.43,17.63\H
 ,28.21,25.15,18.37\H,27.,24.75,17.55\O,26.54,25.9,22.98\H,27.4,26.25,2
 3.23\H,26.74,25.12,22.46\O,27.58,14.89,17.78\H,27.36,15.34,18.59\H,27.
 47,15.55,17.09\O,19.54,26.04,12.51\H,19.84,25.92,13.42\H,20.35,26.09,1
 2.\O,25.13,12.51,19.99\H,24.67,12.52,20.82\H,26.06,12.49,20.22\O,20.27
 ,15.46,11.45\H,19.9,14.59,11.34\H,19.75,15.86,12.15\O,21.94,22.42,11.6
 6\H,22.4,21.83,11.06\H,21.36,22.93,11.09\O,23.04,23.4,28.61\H,22.47,23
 .4,27.85\H,22.46,23.29,29.36\O,29.74,19.14,19.31\H,28.82,18.88,19.37\H
 ,30.18,18.61,19.97\O,28.78,17.25,23.11\H,27.86,17.42,23.33\H,29.2,18.1
 1,23.15\O,17.29,12.1,24.49\H,17.27,12.24,23.55\H,18.19,12.33,24.75\O,2
 5.35,25.,25.28\H,25.82,25.35,24.53\H,25.84,25.31,26.04\\Version=ES64L-
 G09RevE.01\HF=-9773.4649864\RMSD=1.876e-09\RMSF=1.108e-02\Dipole=8.203
 0398,7.6088866,-9.4031011\Quadrupole=436.8438577,360.5196814,-797.3635
 391,-806.3492022,-1421.4980599,-1437.4509016\PG=C01 [X(Br1H256O128)]\\
 @


 YOU CAN WIPE THE SLATE CLEAN, BUT YOU'LL STILL
 HAVE TO EAT A LITTLE CHALK DUST.
 Job cpu time:       6 days 20 hours 37 minutes 21.1 seconds.
 File lengths (MBytes):  RWF=   7285 Int=      0 D2E=      0 Chk=   2411 Scr=      1
 Normal termination of Gaussian 09 at Wed May 16 01:14:35 2018.
