 Entering Gaussian System, Link 0=/cm/shared/gaussian/g09.e01/intel64-sandybridge/g09/g09
 Initial command:
 /cm/shared/gaussian/g09.e01/intel64-sandybridge/g09/l1.exe "/local/scratch/m.peluso/128_wat/300a/Gau-33463.inp" -scrdir="/local/scratch/m.peluso/128_wat/300a/"
 Entering Link 1 = /cm/shared/gaussian/g09.e01/intel64-sandybridge/g09/l1.exe PID=     33464.
  
 Copyright (c) 1988,1990,1992,1993,1995,1998,2003,2009,2015,
            Gaussian, Inc.  All Rights Reserved.
  
 This is part of the Gaussian(R) 09 program.  It is based on
 the Gaussian(R) 03 system (copyright 2003, Gaussian, Inc.),
 the Gaussian(R) 98 system (copyright 1998, Gaussian, Inc.),
 the Gaussian(R) 94 system (copyright 1995, Gaussian, Inc.),
 the Gaussian 92(TM) system (copyright 1992, Gaussian, Inc.),
 the Gaussian 90(TM) system (copyright 1990, Gaussian, Inc.),
 the Gaussian 88(TM) system (copyright 1988, Gaussian, Inc.),
 the Gaussian 86(TM) system (copyright 1986, Carnegie Mellon
 University), and the Gaussian 82(TM) system (copyright 1983,
 Carnegie Mellon University). Gaussian is a federally registered
 trademark of Gaussian, Inc.
  
 This software contains proprietary and confidential information,
 including trade secrets, belonging to Gaussian, Inc.
  
 This software is provided under written license and may be
 used, copied, transmitted, or stored only in accord with that
 written license.
  
 The following legend is applicable only to US Government
 contracts under FAR:
  
                    RESTRICTED RIGHTS LEGEND
  
 Use, reproduction and disclosure by the US Government is
 subject to restrictions as set forth in subparagraphs (a)
 and (c) of the Commercial Computer Software - Restricted
 Rights clause in FAR 52.227-19.
  
 Gaussian, Inc.
 340 Quinnipiac St., Bldg. 40, Wallingford CT 06492
  
  
 ---------------------------------------------------------------
 Warning -- This program may not be used in any manner that
 competes with the business of Gaussian, Inc. or will provide
 assistance to any competitor of Gaussian, Inc.  The licensee
 of this program is prohibited from giving any competitor of
 Gaussian, Inc. access to this program.  By using this program,
 the user acknowledges that Gaussian, Inc. is engaged in the
 business of creating and licensing software in the field of
 computational chemistry and represents and warrants to the
 licensee that it is not a competitor of Gaussian, Inc. and that
 it will not use this program in any manner prohibited above.
 ---------------------------------------------------------------
  

 Cite this work as:
 Gaussian 09, Revision E.01,
 M. J. Frisch, G. W. Trucks, H. B. Schlegel, G. E. Scuseria, 
 M. A. Robb, J. R. Cheeseman, G. Scalmani, V. Barone, B. Mennucci, 
 G. A. Petersson, H. Nakatsuji, M. Caricato, X. Li, H. P. Hratchian, 
 A. F. Izmaylov, J. Bloino, G. Zheng, J. L. Sonnenberg, M. Hada, 
 M. Ehara, K. Toyota, R. Fukuda, J. Hasegawa, M. Ishida, T. Nakajima, 
 Y. Honda, O. Kitao, H. Nakai, T. Vreven, J. A. Montgomery, Jr., 
 J. E. Peralta, F. Ogliaro, M. Bearpark, J. J. Heyd, E. Brothers, 
 K. N. Kudin, V. N. Staroverov, T. Keith, R. Kobayashi, J. Normand, 
 K. Raghavachari, A. Rendell, J. C. Burant, S. S. Iyengar, J. Tomasi, 
 M. Cossi, N. Rega, J. M. Millam, M. Klene, J. E. Knox, J. B. Cross, 
 V. Bakken, C. Adamo, J. Jaramillo, R. Gomperts, R. E. Stratmann, 
 O. Yazyev, A. J. Austin, R. Cammi, C. Pomelli, J. W. Ochterski, 
 R. L. Martin, K. Morokuma, V. G. Zakrzewski, G. A. Voth, 
 P. Salvador, J. J. Dannenberg, S. Dapprich, A. D. Daniels, 
 O. Farkas, J. B. Foresman, J. V. Ortiz, J. Cioslowski, 
 and D. J. Fox, Gaussian, Inc., Wallingford CT, 2013.
 
 ******************************************
 Gaussian 09:  ES64L-G09RevE.01 30-Nov-2015
                 4-May-2018 
 ******************************************
 %Mem=110GB
 %NProcShared=64
 Will use up to   64 processors via shared memory.
 %chk=snap84.chk
 ----------------------------------------------
 #p PBE1PBE/cc-pvDZ force Counterpoise=2 noSymm
 ----------------------------------------------
 1/10=7,30=1,38=1,62=2/1,3;
 2/12=2,15=1,17=6,18=5,40=1/2;
 1/10=7,30=1,38=1,53=2,62=2,63=101/22;
 3/5=16,11=2,16=1,25=1,30=1,71=1,74=-13/1,2,3;
 4//1;
 5/5=2,38=5/2;
 6/7=2,8=2,9=2,10=2,28=1/1;
 7/7=1,29=1,30=1,33=-1/1,2,3,16;
 1/10=7,30=1,53=2,62=2,63=101/22;
 3/5=7,6=11,11=2,16=1,25=1,30=1,71=1,74=-13,82=7/1,2,3;
 4//1;
 5/5=2,38=5/2;
 6/7=2,8=2,9=2,10=2,28=1/1;
 7/7=1,29=1,30=1,33=-1/1,2,3,16;
 1/10=7,30=1,53=2,62=2,63=101/22(-5);
 7/9=1,29=1,44=-1/16;
 1/10=7,30=1,62=2/3;
 99//99;
 Leave Link    1 at Fri May  4 22:52:53 2018, MaxMem= 14763950080 cpu:         6.2
 (Enter /cm/shared/gaussian/g09.e01/intel64-sandybridge/g09/l101.exe)
 ---------------------------------------
 forces on chloride comput - NWATER: 128
 ---------------------------------------
 Symbolic Z-matrix:
 Charge = -1 Multiplicity = 1 in supermolecule
 Charge = -1 Multiplicity = 1 in fragment      1.
 Charge =  0 Multiplicity = 1 in fragment      2.
 Br(Fragment=1)        20.       20.       20. 
 O(Fragment=2)         17.85     17.89     19.65 
 H(Fragment=2)         17.82     17.54     20.54 
 H(Fragment=2)         18.65     18.41     19.63 
 O(Fragment=2)         17.43     21.89     19.71 
 H(Fragment=2)         17.92     22.62     19.32 
 H(Fragment=2)         18.07     21.18     19.78 
 O(Fragment=2)         22.31     17.89     20.08 
 H(Fragment=2)         21.66     17.42     19.56 
 H(Fragment=2)         21.88     18.71     20.31 
 O(Fragment=2)         19.89     21.49     23.14 
 H(Fragment=2)         19.9      21.43     22.19 
 H(Fragment=2)         19.72     20.59     23.43 
 O(Fragment=2)         22.78     21.91     18.84 
 H(Fragment=2)         21.92     21.57     19.07 
 H(Fragment=2)         23.26     21.16     18.49 
 O(Fragment=2)         20.3      21.96     16.53 
 H(Fragment=2)         20.23     21.32     17.25 
 H(Fragment=2)         19.77     22.7      16.82 
 O(Fragment=2)         20.67     16.82     22.36 
 H(Fragment=2)         20.9      17.35     21.59 
 H(Fragment=2)         19.84     16.41     22.13 
 O(Fragment=2)         19.52     17.49     16.86 
 H(Fragment=2)         19.53     17.61     17.81 
 H(Fragment=2)         18.73     17.95     16.57 
 O(Fragment=2)         20.4      16.22     19.16 
 H(Fragment=2)         20.12     15.89     20.01 
 H(Fragment=2)         19.86     15.75     18.53 
 O(Fragment=2)         19.23     18.98     23.84 
 H(Fragment=2)         19.88     18.33     23.57 
 H(Fragment=2)         18.46     18.47     24.08 
 O(Fragment=2)         20.84     24.52     19.83 
 H(Fragment=2)         21.16     23.83     20.4 
 H(Fragment=2)         21.19     25.33     20.2 
 O(Fragment=2)         16.25     19.43     22.52 
 H(Fragment=2)         16.93     20.1      22.61 
 H(Fragment=2)         15.63     19.62     23.22 
 O(Fragment=2)         23.86     21.83     22.05 
 H(Fragment=2)         23.1      22.15     21.57 
 H(Fragment=2)         23.5      21.55     22.9 
 O(Fragment=2)         21.43     19.06     15.59 
 H(Fragment=2)         21.39     20.02     15.64 
 H(Fragment=2)         20.72     18.76     16.16 
 O(Fragment=2)         21.47     23.55     22.47 
 H(Fragment=2)         20.77     24.18     22.29 
 H(Fragment=2)         21.04     22.84     22.95 
 O(Fragment=2)         15.18     20.38     18.57 
 H(Fragment=2)         15.84     20.51     19.25 
 H(Fragment=2)         14.91     21.27     18.33 
 O(Fragment=2)         23.99     19.44     18.23 
 H(Fragment=2)         23.69     18.55     18.43 
 H(Fragment=2)         24.53     19.34     17.44 
 O(Fragment=2)         19.08     24.25     17.67 
 H(Fragment=2)         19.6      24.2      18.47 
 H(Fragment=2)         19.2      25.15     17.37 
 O(Fragment=2)         24.37     17.22     21.74 
 H(Fragment=2)         23.53     17.38     21.3 
 H(Fragment=2)         24.9      18.       21.54 
 O(Fragment=2)         17.5      15.39     18.41 
 H(Fragment=2)         17.59     16.27     18.79 
 H(Fragment=2)         17.29     15.56     17.49 
 O(Fragment=2)         16.38     18.59     16.68 
 H(Fragment=2)         16.25     17.64     16.58 
 H(Fragment=2)         16.24     18.76     17.61 
 O(Fragment=2)         18.23     15.8      21.48 
 H(Fragment=2)         17.28     15.92     21.5 
 H(Fragment=2)         18.37     14.88     21.72 
 O(Fragment=2)         15.07     23.02     20.54 
 H(Fragment=2)         15.95     22.64     20.51 
 H(Fragment=2)         15.11     23.76     19.93 
 O(Fragment=2)         23.12     24.55     17.91 
 H(Fragment=2)         22.29     24.95     17.66 
 H(Fragment=2)         22.87     23.7      18.29 
 O(Fragment=2)         15.73     16.73     21.83 
 H(Fragment=2)         16.07     17.62     21.94 
 H(Fragment=2)         14.86     16.75     22.22 
 O(Fragment=2)         18.81     21.52     14.17 
 H(Fragment=2)         19.2      22.12     13.53 
 H(Fragment=2)         19.21     21.77     15. 
 O(Fragment=2)         19.67     22.35     25.83 
 H(Fragment=2)         19.12     23.11     26.03 
 H(Fragment=2)         19.31     22.01     25.01 
 O(Fragment=2)         22.76     20.73     24.64 
 H(Fragment=2)         23.22     19.95     24.94 
 H(Fragment=2)         21.9      20.68     25.06 
 O(Fragment=2)         25.44     22.93     19.21 
 H(Fragment=2)         24.55     22.8      18.89 
 H(Fragment=2)         25.85     23.51     18.56 
 O(Fragment=2)         21.51     15.49     15.97 
 H(Fragment=2)         22.35     15.85     16.28 
 H(Fragment=2)         20.87     16.17     16.19 
 O(Fragment=2)         19.       25.23     22.38 
 H(Fragment=2)         18.4      25.28     23.13 
 H(Fragment=2)         18.42     25.13     21.62 
 O(Fragment=2)         17.68     16.62     24.32 
 H(Fragment=2)         16.76     16.4      24.47 
 H(Fragment=2)         17.93     16.12     23.54 
 O(Fragment=2)         21.6      15.07     24.22 
 H(Fragment=2)         21.27     15.62     23.51 
 H(Fragment=2)         21.77     15.69     24.94 
 O(Fragment=2)         23.65     16.89     16.45 
 H(Fragment=2)         24.6      16.92     16.61 
 H(Fragment=2)         23.47     17.66     15.92 
 O(Fragment=2)         16.86     19.65     14.21 
 H(Fragment=2)         16.83     19.25     15.08 
 H(Fragment=2)         17.46     20.39     14.31 
 O(Fragment=2)         16.3      24.08     16.35 
 H(Fragment=2)         17.22     23.83     16.44 
 H(Fragment=2)         16.18     24.19     15.41 
 O(Fragment=2)         26.61     21.18     21.25 
 H(Fragment=2)         25.84     20.71     21.57 
 H(Fragment=2)         26.25     21.92     20.76 
 O(Fragment=2)         25.4      23.97     22.29 
 H(Fragment=2)         24.77     23.27     22.11 
 H(Fragment=2)         25.07     24.72     21.78 
 O(Fragment=2)         23.13     14.19     17.94 
 H(Fragment=2)         23.76     14.9      17.83 
 H(Fragment=2)         22.62     14.44     18.7 
 O(Fragment=2)         21.92     13.88     20.77 
 H(Fragment=2)         21.89     14.24     21.66 
 H(Fragment=2)         21.35     13.11     20.8 
 O(Fragment=2)         20.87     18.71     26.14 
 H(Fragment=2)         21.21     17.82     26.17 
 H(Fragment=2)         21.08     19.08     27. 
 O(Fragment=2)         20.35     17.15     13.38 
 H(Fragment=2)         20.31     16.28     13.77 
 H(Fragment=2)         20.73     17.7      14.06 
 O(Fragment=2)         25.02     21.24     15.83 
 H(Fragment=2)         25.49     21.21     16.67 
 H(Fragment=2)         24.68     22.14     15.79 
 O(Fragment=2)         19.86     13.53     17.37 
 H(Fragment=2)         19.06     14.05     17.43 
 H(Fragment=2)         20.5      14.12     16.97 
 O(Fragment=2)         13.11     19.55     21.28 
 H(Fragment=2)         13.61     19.76     22.07 
 H(Fragment=2)         13.07     20.37     20.79 
 O(Fragment=2)         14.16     22.56     17.34 
 H(Fragment=2)         13.5      22.76     16.68 
 H(Fragment=2)         14.8      23.27     17.26 
 O(Fragment=2)         13.73     15.86     18.9 
 H(Fragment=2)         13.16     16.61     19.07 
 H(Fragment=2)         14.54     16.07     19.36 
 O(Fragment=2)         22.59     26.17     21.13 
 H(Fragment=2)         22.43     26.39     22.05 
 H(Fragment=2)         23.55     26.16     21.05 
 O(Fragment=2)         17.19     12.95     19.62 
 H(Fragment=2)         17.43     13.76     19.16 
 H(Fragment=2)         17.77     12.29     19.24 
 O(Fragment=2)         22.       23.88     26.19 
 H(Fragment=2)         22.5      24.19     25.44 
 H(Fragment=2)         21.33     23.31     25.81 
 O(Fragment=2)         15.71     25.4      18.81 
 H(Fragment=2)         16.39     25.96     19.2 
 H(Fragment=2)         16.05     25.18     17.94 
 O(Fragment=2)         12.94     19.56     17.09 
 H(Fragment=2)         13.09     19.12     16.25 
 H(Fragment=2)         13.74     20.06     17.25 
 O(Fragment=2)         24.18     18.9      14.27 
 H(Fragment=2)         23.28     19.1      13.99 
 H(Fragment=2)         24.47     19.7      14.72 
 O(Fragment=2)         26.34     15.49     20.84 
 H(Fragment=2)         25.6      16.06     21.02 
 H(Fragment=2)         26.01     14.6      21.01 
 O(Fragment=2)         17.12     15.59     15.41 
 H(Fragment=2)         17.83     15.2      14.9 
 H(Fragment=2)         16.56     14.85     15.66 
 O(Fragment=2)         12.62     21.96     19.8 
 H(Fragment=2)         13.39     22.27     20.27 
 H(Fragment=2)         12.9      21.89     18.89 
 O(Fragment=2)         25.32     16.59     24.6 
 H(Fragment=2)         24.82     16.62     23.78 
 H(Fragment=2)         25.77     15.75     24.58 
 O(Fragment=2)         27.22     20.8      17.98 
 H(Fragment=2)         26.63     21.5      18.28 
 H(Fragment=2)         28.02     21.26     17.71 
 O(Fragment=2)         21.       21.09     27.72 
 H(Fragment=2)         20.49     21.26     26.92 
 H(Fragment=2)         20.91     21.89     28.24 
 O(Fragment=2)         14.06     20.29     23.85 
 H(Fragment=2)         14.04     19.93     24.74 
 H(Fragment=2)         13.93     21.23     23.97 
 O(Fragment=2)         24.1      18.62     25.67 
 H(Fragment=2)         24.37     17.75     25.36 
 H(Fragment=2)         24.89     19.15     25.61 
 O(Fragment=2)         17.93     26.83     19.78 
 H(Fragment=2)         18.79     27.03     19.41 
 H(Fragment=2)         17.81     27.49     20.46 
 O(Fragment=2)         23.56     23.81     15.1 
 H(Fragment=2)         23.67     24.29     14.27 
 H(Fragment=2)         24.06     24.32     15.73 
 O(Fragment=2)         21.46     27.34     18.58 
 H(Fragment=2)         21.76     28.25     18.61 
 H(Fragment=2)         21.83     26.94     19.37 
 O(Fragment=2)         21.34     25.47     14.43 
 H(Fragment=2)         21.81     24.72     14.79 
 H(Fragment=2)         20.44     25.36     14.73 
 O(Fragment=2)         19.18     15.72     26.99 
 H(Fragment=2)         18.36     16.14     27.24 
 H(Fragment=2)         19.32     16.       26.08 
 O(Fragment=2)         19.49     26.95     17.01 
 H(Fragment=2)         19.27     27.88     17.06 
 H(Fragment=2)         20.31     26.86     17.49 
 O(Fragment=2)         20.83     27.48     23.14 
 H(Fragment=2)         20.3      26.77     22.79 
 H(Fragment=2)         20.6      27.51     24.07 
 O(Fragment=2)         25.03     21.67     26.15 
 H(Fragment=2)         24.13     21.68     25.84 
 H(Fragment=2)         24.96     21.75     27.1 
 O(Fragment=2)         18.03     13.27     22.33 
 H(Fragment=2)         17.72     13.04     21.45 
 H(Fragment=2)         17.3      13.02     22.91 
 O(Fragment=2)         13.06     24.09     22.22 
 H(Fragment=2)         13.78     23.47     22.16 
 H(Fragment=2)         13.06     24.54     21.37 
 O(Fragment=2)         14.93     22.94     24.92 
 H(Fragment=2)         15.68     22.71     25.47 
 H(Fragment=2)         14.55     23.7      25.35 
 O(Fragment=2)         13.08     17.18     22.54 
 H(Fragment=2)         13.       17.9      21.91 
 H(Fragment=2)         13.03     17.61     23.4 
 O(Fragment=2)         12.13     18.12     19.2 
 H(Fragment=2)         12.19     18.69     19.97 
 H(Fragment=2)         12.71     18.53     18.56 
 O(Fragment=2)         23.88     25.02     24.6 
 H(Fragment=2)         24.48     24.73     23.91 
 H(Fragment=2)         24.35     25.72     25.05 
 O(Fragment=2)         17.84     24.55     25.7 
 H(Fragment=2)         17.71     24.32     26.61 
 H(Fragment=2)         17.42     25.41     25.61 
 O(Fragment=2)         22.75     21.95     12.57 
 H(Fragment=2)         22.08     22.52     12.19 
 H(Fragment=2)         23.01     22.39     13.38 
 O(Fragment=2)         24.03     26.79     16.81 
 H(Fragment=2)         23.61     26.27     17.49 
 H(Fragment=2)         23.32     27.08     16.25 
 O(Fragment=2)         27.97     18.24     18.46 
 H(Fragment=2)         28.42     18.47     19.28 
 H(Fragment=2)         27.4      18.98     18.28 
 O(Fragment=2)         26.13     16.58     16.91 
 H(Fragment=2)         26.68     15.99     16.4 
 H(Fragment=2)         26.72     16.95     17.57 
 O(Fragment=2)         16.56     17.02     13.06 
 H(Fragment=2)         16.76     16.64     13.91 
 H(Fragment=2)         16.57     17.97     13.22 
 O(Fragment=2)         14.7      21.3      13.67 
 H(Fragment=2)         15.11     20.52     14.04 
 H(Fragment=2)         15.43     21.8      13.31 
 O(Fragment=2)         18.49     25.72     14.66 
 H(Fragment=2)         18.8      26.15     15.46 
 H(Fragment=2)         17.82     26.3      14.31 
 O(Fragment=2)         19.85     13.       24.52 
 H(Fragment=2)         19.31     13.21     23.75 
 H(Fragment=2)         20.48     13.71     24.57 
 O(Fragment=2)         25.96     24.32     16.81 
 H(Fragment=2)         25.51     24.95     17.37 
 H(Fragment=2)         26.71     24.8      16.46 
 O(Fragment=2)         16.31     21.96     27.21 
 H(Fragment=2)         16.53     22.61     27.87 
 H(Fragment=2)         17.03     21.33     27.24 
 O(Fragment=2)         21.87     16.32     26.79 
 H(Fragment=2)         22.69     15.9      27.05 
 H(Fragment=2)         21.29     16.2      27.54 
 O(Fragment=2)         15.04     25.72     23.58 
 H(Fragment=2)         14.63     24.87     23.4 
 H(Fragment=2)         14.3      26.32     23.67 
 O(Fragment=2)         22.89     19.33     28.14 
 H(Fragment=2)         23.37     19.44     27.32 
 H(Fragment=2)         22.32     20.1      28.18 
 O(Fragment=2)         22.87     13.56     14.28 
 H(Fragment=2)         22.57     14.24     14.88 
 H(Fragment=2)         22.93     14.01     13.43 
 O(Fragment=2)         19.23     23.74     12.74 
 H(Fragment=2)         19.89     24.02     12.11 
 H(Fragment=2)         19.1      24.51     13.3 
 O(Fragment=2)         18.88     19.18     28.42 
 H(Fragment=2)         19.68     19.62     28.12 
 H(Fragment=2)         19.14     18.74     29.23 
 O(Fragment=2)         22.8      11.54     19.02 
 H(Fragment=2)         23.09     12.45     19.07 
 H(Fragment=2)         22.1      11.48     19.68 
 O(Fragment=2)         26.74     23.49     24.74 
 H(Fragment=2)         26.33     23.55     23.87 
 H(Fragment=2)         26.36     22.7      25.12 
 O(Fragment=2)         16.86     17.38     27.67 
 H(Fragment=2)         17.4      18.17     27.61 
 H(Fragment=2)         16.78     17.22     28.61 
 O(Fragment=2)         14.24     18.88     26.33 
 H(Fragment=2)         13.78     18.91     27.18 
 H(Fragment=2)         15.12     18.59     26.55 
 O(Fragment=2)         13.19     25.76     19.89 
 H(Fragment=2)         12.63     25.65     19.13 
 H(Fragment=2)         14.06     25.92     19.53 
 O(Fragment=2)         29.13     20.84     21.93 
 H(Fragment=2)         29.46     21.38     22.65 
 H(Fragment=2)         28.18     20.89     22.03 
 O(Fragment=2)         25.21     26.58     21.18 
 H(Fragment=2)         25.67     27.23     21.71 
 H(Fragment=2)         25.79     26.42     20.44 
 O(Fragment=2)         20.99     11.35     16.66 
 H(Fragment=2)         21.63     11.31     17.37 
 H(Fragment=2)         20.5      12.16     16.81 
 O(Fragment=2)         27.62     18.19     24.02 
 H(Fragment=2)         27.89     17.57     23.34 
 H(Fragment=2)         26.88     17.77     24.45 
 O(Fragment=2)         15.35     15.81     25.85 
 H(Fragment=2)         15.98     16.19     26.46 
 H(Fragment=2)         14.5      16.04     26.22 
 O(Fragment=2)         13.75     15.08     16.03 
 H(Fragment=2)         12.88     14.95     15.66 
 H(Fragment=2)         13.59     15.26     16.96 
 O(Fragment=2)         16.55     22.42     12.16 
 H(Fragment=2)         16.52     21.95     11.33 
 H(Fragment=2)         17.47     22.65     12.27 
 O(Fragment=2)         25.41     12.94     20.93 
 H(Fragment=2)         25.84     12.46     20.22 
 H(Fragment=2)         24.48     12.74     20.83 
 O(Fragment=2)         20.58     11.46     20.66 
 H(Fragment=2)         19.81     11.19     20.17 
 H(Fragment=2)         20.45     11.1      21.53 
 O(Fragment=2)         18.93     17.64     11.1 
 H(Fragment=2)         18.04     17.61     11.46 
 H(Fragment=2)         19.49     17.39     11.83 
 O(Fragment=2)         14.52     12.44     20.63 
 H(Fragment=2)         14.77     11.75     21.24 
 H(Fragment=2)         15.32     12.64     20.14 
 O(Fragment=2)         12.42     14.55     21.53 
 H(Fragment=2)         12.98     13.79     21.66 
 H(Fragment=2)         12.91     15.28     21.91 
 O(Fragment=2)         18.62     13.65     14.08 
 H(Fragment=2)         19.       13.9      13.24 
 H(Fragment=2)         18.89     12.73     14.2 
 O(Fragment=2)         27.9      14.57     18.65 
 H(Fragment=2)         28.72     15.03     18.85 
 H(Fragment=2)         27.24     15.03     19.17 
 O(Fragment=2)         15.76     13.39     15.66 
 H(Fragment=2)         15.       13.94     15.86 
 H(Fragment=2)         15.82     13.39     14.7 
 O(Fragment=2)         20.4      25.39     27.79 
 H(Fragment=2)         21.06     24.83     27.38 
 H(Fragment=2)         20.27     26.1      27.16 
 O(Fragment=2)         22.24     27.82     15.21 
 H(Fragment=2)         21.66     28.53     15.48 
 H(Fragment=2)         21.65     27.12     14.94 
 O(Fragment=2)         13.16     18.36     14.51 
 H(Fragment=2)         13.42     18.1      13.63 
 H(Fragment=2)         12.21     18.22     14.52 
 O(Fragment=2)         16.43     19.17     10.94 
 H(Fragment=2)         16.45     19.83     10.25 
 H(Fragment=2)         16.62     19.66     11.74 
 O(Fragment=2)         28.43     24.61     21.72 
 H(Fragment=2)         27.83     23.92     22.04 
 H(Fragment=2)         29.22     24.14     21.47 
 O(Fragment=2)         15.55     24.68     13.49 
 H(Fragment=2)         16.05     24.04     13. 
 H(Fragment=2)         14.63     24.47     13.3 
 O(Fragment=2)         15.98     12.77     23.82 
 H(Fragment=2)         15.99     13.35     24.57 
 H(Fragment=2)         15.64     11.94     24.16 
 O(Fragment=2)         24.34     12.22     16.15 
 H(Fragment=2)         23.74     12.42     16.86 
 H(Fragment=2)         23.93     12.61     15.38 
 O(Fragment=2)         19.85     27.37     25.79 
 H(Fragment=2)         19.67     28.09     26.4 
 H(Fragment=2)         18.99     27.08     25.5 
 O(Fragment=2)         11.35     22.47     23.55 
 H(Fragment=2)         12.02     23.       23.11 
 H(Fragment=2)         11.05     23.02     24.28 
 O(Fragment=2)         25.05     15.77     13.02 
 H(Fragment=2)         25.44     15.76     13.89 
 H(Fragment=2)         24.66     16.65     12.94 
 O(Fragment=2)         16.94     27.02     25.33 
 H(Fragment=2)         16.26     26.87     24.67 
 H(Fragment=2)         16.83     27.94     25.57 
 O(Fragment=2)         28.5      16.23     22.43 
 H(Fragment=2)         28.91     15.49     22.88 
 H(Fragment=2)         27.91     15.84     21.8 
 O(Fragment=2)         10.71     23.66     20.65 
 H(Fragment=2)         11.14     24.06     21.4 
 H(Fragment=2)         11.35     23.05     20.29 
 O(Fragment=2)         12.75     13.36     18.58 
 H(Fragment=2)         12.92     14.29     18.7 
 H(Fragment=2)         13.21     12.93     19.31 
 O(Fragment=2)         21.71     29.79     21.73 
 H(Fragment=2)         21.65     30.38     22.48 
 H(Fragment=2)         21.66     28.91     22.11 
 
 NAtoms=    385 NQM=      385 NQMF=       0 NMMI=      0 NMMIF=      0
                NMic=       0 NMicF=      0.
                    Isotopes and Nuclear Properties:
 (Nuclear quadrupole moments (NQMom) in fm**2, nuclear magnetic moments (NMagM)
  in nuclear magnetons)

  Atom         1           2           3           4           5           6           7           8           9          10
 IAtWgt=          79          16           1           1          16           1           1          16           1           1
 AtmWgt=  78.9183361  15.9949146   1.0078250   1.0078250  15.9949146   1.0078250   1.0078250  15.9949146   1.0078250   1.0078250
 NucSpn=           3           0           1           1           0           1           1           0           1           1
 AtZEff=   0.0000000   0.0000000   0.0000000   0.0000000   0.0000000   0.0000000   0.0000000   0.0000000   0.0000000   0.0000000
 NQMom=   31.3000000   0.0000000   0.0000000   0.0000000   0.0000000   0.0000000   0.0000000   0.0000000   0.0000000   0.0000000
 NMagM=    2.1063990   0.0000000   2.7928460   2.7928460   0.0000000   2.7928460   2.7928460   0.0000000   2.7928460   2.7928460
 AtZNuc=  35.0000000   8.0000000   1.0000000   1.0000000   8.0000000   1.0000000   1.0000000   8.0000000   1.0000000   1.0000000

  Atom        11          12          13          14          15          16          17          18          19          20
 IAtWgt=          16           1           1          16           1           1          16           1           1          16
 AtmWgt=  15.9949146   1.0078250   1.0078250  15.9949146   1.0078250   1.0078250  15.9949146   1.0078250   1.0078250  15.9949146
 NucSpn=           0           1           1           0           1           1           0           1           1           0
 AtZEff=   0.0000000   0.0000000   0.0000000   0.0000000   0.0000000   0.0000000   0.0000000   0.0000000   0.0000000   0.0000000
 NQMom=    0.0000000   0.0000000   0.0000000   0.0000000   0.0000000   0.0000000   0.0000000   0.0000000   0.0000000   0.0000000
 NMagM=    0.0000000   2.7928460   2.7928460   0.0000000   2.7928460   2.7928460   0.0000000   2.7928460   2.7928460   0.0000000
 AtZNuc=   8.0000000   1.0000000   1.0000000   8.0000000   1.0000000   1.0000000   8.0000000   1.0000000   1.0000000   8.0000000

  Atom        21          22          23          24          25          26          27          28          29          30
 IAtWgt=           1           1          16           1           1          16           1           1          16           1
 AtmWgt=   1.0078250   1.0078250  15.9949146   1.0078250   1.0078250  15.9949146   1.0078250   1.0078250  15.9949146   1.0078250
 NucSpn=           1           1           0           1           1           0           1           1           0           1
 AtZEff=   0.0000000   0.0000000   0.0000000   0.0000000   0.0000000   0.0000000   0.0000000   0.0000000   0.0000000   0.0000000
 NQMom=    0.0000000   0.0000000   0.0000000   0.0000000   0.0000000   0.0000000   0.0000000   0.0000000   0.0000000   0.0000000
 NMagM=    2.7928460   2.7928460   0.0000000   2.7928460   2.7928460   0.0000000   2.7928460   2.7928460   0.0000000   2.7928460
 AtZNuc=   1.0000000   1.0000000   8.0000000   1.0000000   1.0000000   8.0000000   1.0000000   1.0000000   8.0000000   1.0000000

  Atom        31          32          33          34          35          36          37          38          39          40
 IAtWgt=           1          16           1           1          16           1           1          16           1           1
 AtmWgt=   1.0078250  15.9949146   1.0078250   1.0078250  15.9949146   1.0078250   1.0078250  15.9949146   1.0078250   1.0078250
 NucSpn=           1           0           1           1           0           1           1           0           1           1
 AtZEff=   0.0000000   0.0000000   0.0000000   0.0000000   0.0000000   0.0000000   0.0000000   0.0000000   0.0000000   0.0000000
 NQMom=    0.0000000   0.0000000   0.0000000   0.0000000   0.0000000   0.0000000   0.0000000   0.0000000   0.0000000   0.0000000
 NMagM=    2.7928460   0.0000000   2.7928460   2.7928460   0.0000000   2.7928460   2.7928460   0.0000000   2.7928460   2.7928460
 AtZNuc=   1.0000000   8.0000000   1.0000000   1.0000000   8.0000000   1.0000000   1.0000000   8.0000000   1.0000000   1.0000000

  Atom        41          42          43          44          45          46          47          48          49          50
 IAtWgt=          16           1           1          16           1           1          16           1           1          16
 AtmWgt=  15.9949146   1.0078250   1.0078250  15.9949146   1.0078250   1.0078250  15.9949146   1.0078250   1.0078250  15.9949146
 NucSpn=           0           1           1           0           1           1           0           1           1           0
 AtZEff=   0.0000000   0.0000000   0.0000000   0.0000000   0.0000000   0.0000000   0.0000000   0.0000000   0.0000000   0.0000000
 NQMom=    0.0000000   0.0000000   0.0000000   0.0000000   0.0000000   0.0000000   0.0000000   0.0000000   0.0000000   0.0000000
 NMagM=    0.0000000   2.7928460   2.7928460   0.0000000   2.7928460   2.7928460   0.0000000   2.7928460   2.7928460   0.0000000
 AtZNuc=   8.0000000   1.0000000   1.0000000   8.0000000   1.0000000   1.0000000   8.0000000   1.0000000   1.0000000   8.0000000

  Atom        51          52          53          54          55          56          57          58          59          60
 IAtWgt=           1           1          16           1           1          16           1           1          16           1
 AtmWgt=   1.0078250   1.0078250  15.9949146   1.0078250   1.0078250  15.9949146   1.0078250   1.0078250  15.9949146   1.0078250
 NucSpn=           1           1           0           1           1           0           1           1           0           1
 AtZEff=   0.0000000   0.0000000   0.0000000   0.0000000   0.0000000   0.0000000   0.0000000   0.0000000   0.0000000   0.0000000
 NQMom=    0.0000000   0.0000000   0.0000000   0.0000000   0.0000000   0.0000000   0.0000000   0.0000000   0.0000000   0.0000000
 NMagM=    2.7928460   2.7928460   0.0000000   2.7928460   2.7928460   0.0000000   2.7928460   2.7928460   0.0000000   2.7928460
 AtZNuc=   1.0000000   1.0000000   8.0000000   1.0000000   1.0000000   8.0000000   1.0000000   1.0000000   8.0000000   1.0000000

  Atom        61          62          63          64          65          66          67          68          69          70
 IAtWgt=           1          16           1           1          16           1           1          16           1           1
 AtmWgt=   1.0078250  15.9949146   1.0078250   1.0078250  15.9949146   1.0078250   1.0078250  15.9949146   1.0078250   1.0078250
 NucSpn=           1           0           1           1           0           1           1           0           1           1
 AtZEff=   0.0000000   0.0000000   0.0000000   0.0000000   0.0000000   0.0000000   0.0000000   0.0000000   0.0000000   0.0000000
 NQMom=    0.0000000   0.0000000   0.0000000   0.0000000   0.0000000   0.0000000   0.0000000   0.0000000   0.0000000   0.0000000
 NMagM=    2.7928460   0.0000000   2.7928460   2.7928460   0.0000000   2.7928460   2.7928460   0.0000000   2.7928460   2.7928460
 AtZNuc=   1.0000000   8.0000000   1.0000000   1.0000000   8.0000000   1.0000000   1.0000000   8.0000000   1.0000000   1.0000000

  Atom        71          72          73          74          75          76          77          78          79          80
 IAtWgt=          16           1           1          16           1           1          16           1           1          16
 AtmWgt=  15.9949146   1.0078250   1.0078250  15.9949146   1.0078250   1.0078250  15.9949146   1.0078250   1.0078250  15.9949146
 NucSpn=           0           1           1           0           1           1           0           1           1           0
 AtZEff=   0.0000000   0.0000000   0.0000000   0.0000000   0.0000000   0.0000000   0.0000000   0.0000000   0.0000000   0.0000000
 NQMom=    0.0000000   0.0000000   0.0000000   0.0000000   0.0000000   0.0000000   0.0000000   0.0000000   0.0000000   0.0000000
 NMagM=    0.0000000   2.7928460   2.7928460   0.0000000   2.7928460   2.7928460   0.0000000   2.7928460   2.7928460   0.0000000
 AtZNuc=   8.0000000   1.0000000   1.0000000   8.0000000   1.0000000   1.0000000   8.0000000   1.0000000   1.0000000   8.0000000

  Atom        81          82          83          84          85          86          87          88          89          90
 IAtWgt=           1           1          16           1           1          16           1           1          16           1
 AtmWgt=   1.0078250   1.0078250  15.9949146   1.0078250   1.0078250  15.9949146   1.0078250   1.0078250  15.9949146   1.0078250
 NucSpn=           1           1           0           1           1           0           1           1           0           1
 AtZEff=   0.0000000   0.0000000   0.0000000   0.0000000   0.0000000   0.0000000   0.0000000   0.0000000   0.0000000   0.0000000
 NQMom=    0.0000000   0.0000000   0.0000000   0.0000000   0.0000000   0.0000000   0.0000000   0.0000000   0.0000000   0.0000000
 NMagM=    2.7928460   2.7928460   0.0000000   2.7928460   2.7928460   0.0000000   2.7928460   2.7928460   0.0000000   2.7928460
 AtZNuc=   1.0000000   1.0000000   8.0000000   1.0000000   1.0000000   8.0000000   1.0000000   1.0000000   8.0000000   1.0000000

  Atom        91          92          93          94          95          96          97          98          99         100
 IAtWgt=           1          16           1           1          16           1           1          16           1           1
 AtmWgt=   1.0078250  15.9949146   1.0078250   1.0078250  15.9949146   1.0078250   1.0078250  15.9949146   1.0078250   1.0078250
 NucSpn=           1           0           1           1           0           1           1           0           1           1
 AtZEff=   0.0000000   0.0000000   0.0000000   0.0000000   0.0000000   0.0000000   0.0000000   0.0000000   0.0000000   0.0000000
 NQMom=    0.0000000   0.0000000   0.0000000   0.0000000   0.0000000   0.0000000   0.0000000   0.0000000   0.0000000   0.0000000
 NMagM=    2.7928460   0.0000000   2.7928460   2.7928460   0.0000000   2.7928460   2.7928460   0.0000000   2.7928460   2.7928460
 AtZNuc=   1.0000000   8.0000000   1.0000000   1.0000000   8.0000000   1.0000000   1.0000000   8.0000000   1.0000000   1.0000000

  Atom       101         102         103         104         105         106         107         108         109         110
 IAtWgt=          16           1           1          16           1           1          16           1           1          16
 AtmWgt=  15.9949146   1.0078250   1.0078250  15.9949146   1.0078250   1.0078250  15.9949146   1.0078250   1.0078250  15.9949146
 NucSpn=           0           1           1           0           1           1           0           1           1           0
 AtZEff=   0.0000000   0.0000000   0.0000000   0.0000000   0.0000000   0.0000000   0.0000000   0.0000000   0.0000000   0.0000000
 NQMom=    0.0000000   0.0000000   0.0000000   0.0000000   0.0000000   0.0000000   0.0000000   0.0000000   0.0000000   0.0000000
 NMagM=    0.0000000   2.7928460   2.7928460   0.0000000   2.7928460   2.7928460   0.0000000   2.7928460   2.7928460   0.0000000
 AtZNuc=   8.0000000   1.0000000   1.0000000   8.0000000   1.0000000   1.0000000   8.0000000   1.0000000   1.0000000   8.0000000

  Atom       111         112         113         114         115         116         117         118         119         120
 IAtWgt=           1           1          16           1           1          16           1           1          16           1
 AtmWgt=   1.0078250   1.0078250  15.9949146   1.0078250   1.0078250  15.9949146   1.0078250   1.0078250  15.9949146   1.0078250
 NucSpn=           1           1           0           1           1           0           1           1           0           1
 AtZEff=   0.0000000   0.0000000   0.0000000   0.0000000   0.0000000   0.0000000   0.0000000   0.0000000   0.0000000   0.0000000
 NQMom=    0.0000000   0.0000000   0.0000000   0.0000000   0.0000000   0.0000000   0.0000000   0.0000000   0.0000000   0.0000000
 NMagM=    2.7928460   2.7928460   0.0000000   2.7928460   2.7928460   0.0000000   2.7928460   2.7928460   0.0000000   2.7928460
 AtZNuc=   1.0000000   1.0000000   8.0000000   1.0000000   1.0000000   8.0000000   1.0000000   1.0000000   8.0000000   1.0000000

  Atom       121         122         123         124         125         126         127         128         129         130
 IAtWgt=           1          16           1           1          16           1           1          16           1           1
 AtmWgt=   1.0078250  15.9949146   1.0078250   1.0078250  15.9949146   1.0078250   1.0078250  15.9949146   1.0078250   1.0078250
 NucSpn=           1           0           1           1           0           1           1           0           1           1
 AtZEff=   0.0000000   0.0000000   0.0000000   0.0000000   0.0000000   0.0000000   0.0000000   0.0000000   0.0000000   0.0000000
 NQMom=    0.0000000   0.0000000   0.0000000   0.0000000   0.0000000   0.0000000   0.0000000   0.0000000   0.0000000   0.0000000
 NMagM=    2.7928460   0.0000000   2.7928460   2.7928460   0.0000000   2.7928460   2.7928460   0.0000000   2.7928460   2.7928460
 AtZNuc=   1.0000000   8.0000000   1.0000000   1.0000000   8.0000000   1.0000000   1.0000000   8.0000000   1.0000000   1.0000000

  Atom       131         132         133         134         135         136         137         138         139         140
 IAtWgt=          16           1           1          16           1           1          16           1           1          16
 AtmWgt=  15.9949146   1.0078250   1.0078250  15.9949146   1.0078250   1.0078250  15.9949146   1.0078250   1.0078250  15.9949146
 NucSpn=           0           1           1           0           1           1           0           1           1           0
 AtZEff=   0.0000000   0.0000000   0.0000000   0.0000000   0.0000000   0.0000000   0.0000000   0.0000000   0.0000000   0.0000000
 NQMom=    0.0000000   0.0000000   0.0000000   0.0000000   0.0000000   0.0000000   0.0000000   0.0000000   0.0000000   0.0000000
 NMagM=    0.0000000   2.7928460   2.7928460   0.0000000   2.7928460   2.7928460   0.0000000   2.7928460   2.7928460   0.0000000
 AtZNuc=   8.0000000   1.0000000   1.0000000   8.0000000   1.0000000   1.0000000   8.0000000   1.0000000   1.0000000   8.0000000

  Atom       141         142         143         144         145         146         147         148         149         150
 IAtWgt=           1           1          16           1           1          16           1           1          16           1
 AtmWgt=   1.0078250   1.0078250  15.9949146   1.0078250   1.0078250  15.9949146   1.0078250   1.0078250  15.9949146   1.0078250
 NucSpn=           1           1           0           1           1           0           1           1           0           1
 AtZEff=   0.0000000   0.0000000   0.0000000   0.0000000   0.0000000   0.0000000   0.0000000   0.0000000   0.0000000   0.0000000
 NQMom=    0.0000000   0.0000000   0.0000000   0.0000000   0.0000000   0.0000000   0.0000000   0.0000000   0.0000000   0.0000000
 NMagM=    2.7928460   2.7928460   0.0000000   2.7928460   2.7928460   0.0000000   2.7928460   2.7928460   0.0000000   2.7928460
 AtZNuc=   1.0000000   1.0000000   8.0000000   1.0000000   1.0000000   8.0000000   1.0000000   1.0000000   8.0000000   1.0000000

  Atom       151         152         153         154         155         156         157         158         159         160
 IAtWgt=           1          16           1           1          16           1           1          16           1           1
 AtmWgt=   1.0078250  15.9949146   1.0078250   1.0078250  15.9949146   1.0078250   1.0078250  15.9949146   1.0078250   1.0078250
 NucSpn=           1           0           1           1           0           1           1           0           1           1
 AtZEff=   0.0000000   0.0000000   0.0000000   0.0000000   0.0000000   0.0000000   0.0000000   0.0000000   0.0000000   0.0000000
 NQMom=    0.0000000   0.0000000   0.0000000   0.0000000   0.0000000   0.0000000   0.0000000   0.0000000   0.0000000   0.0000000
 NMagM=    2.7928460   0.0000000   2.7928460   2.7928460   0.0000000   2.7928460   2.7928460   0.0000000   2.7928460   2.7928460
 AtZNuc=   1.0000000   8.0000000   1.0000000   1.0000000   8.0000000   1.0000000   1.0000000   8.0000000   1.0000000   1.0000000

  Atom       161         162         163         164         165         166         167         168         169         170
 IAtWgt=          16           1           1          16           1           1          16           1           1          16
 AtmWgt=  15.9949146   1.0078250   1.0078250  15.9949146   1.0078250   1.0078250  15.9949146   1.0078250   1.0078250  15.9949146
 NucSpn=           0           1           1           0           1           1           0           1           1           0
 AtZEff=   0.0000000   0.0000000   0.0000000   0.0000000   0.0000000   0.0000000   0.0000000   0.0000000   0.0000000   0.0000000
 NQMom=    0.0000000   0.0000000   0.0000000   0.0000000   0.0000000   0.0000000   0.0000000   0.0000000   0.0000000   0.0000000
 NMagM=    0.0000000   2.7928460   2.7928460   0.0000000   2.7928460   2.7928460   0.0000000   2.7928460   2.7928460   0.0000000
 AtZNuc=   8.0000000   1.0000000   1.0000000   8.0000000   1.0000000   1.0000000   8.0000000   1.0000000   1.0000000   8.0000000

  Atom       171         172         173         174         175         176         177         178         179         180
 IAtWgt=           1           1          16           1           1          16           1           1          16           1
 AtmWgt=   1.0078250   1.0078250  15.9949146   1.0078250   1.0078250  15.9949146   1.0078250   1.0078250  15.9949146   1.0078250
 NucSpn=           1           1           0           1           1           0           1           1           0           1
 AtZEff=   0.0000000   0.0000000   0.0000000   0.0000000   0.0000000   0.0000000   0.0000000   0.0000000   0.0000000   0.0000000
 NQMom=    0.0000000   0.0000000   0.0000000   0.0000000   0.0000000   0.0000000   0.0000000   0.0000000   0.0000000   0.0000000
 NMagM=    2.7928460   2.7928460   0.0000000   2.7928460   2.7928460   0.0000000   2.7928460   2.7928460   0.0000000   2.7928460
 AtZNuc=   1.0000000   1.0000000   8.0000000   1.0000000   1.0000000   8.0000000   1.0000000   1.0000000   8.0000000   1.0000000

  Atom       181         182         183         184         185         186         187         188         189         190
 IAtWgt=           1          16           1           1          16           1           1          16           1           1
 AtmWgt=   1.0078250  15.9949146   1.0078250   1.0078250  15.9949146   1.0078250   1.0078250  15.9949146   1.0078250   1.0078250
 NucSpn=           1           0           1           1           0           1           1           0           1           1
 AtZEff=   0.0000000   0.0000000   0.0000000   0.0000000   0.0000000   0.0000000   0.0000000   0.0000000   0.0000000   0.0000000
 NQMom=    0.0000000   0.0000000   0.0000000   0.0000000   0.0000000   0.0000000   0.0000000   0.0000000   0.0000000   0.0000000
 NMagM=    2.7928460   0.0000000   2.7928460   2.7928460   0.0000000   2.7928460   2.7928460   0.0000000   2.7928460   2.7928460
 AtZNuc=   1.0000000   8.0000000   1.0000000   1.0000000   8.0000000   1.0000000   1.0000000   8.0000000   1.0000000   1.0000000

  Atom       191         192         193         194         195         196         197         198         199         200
 IAtWgt=          16           1           1          16           1           1          16           1           1          16
 AtmWgt=  15.9949146   1.0078250   1.0078250  15.9949146   1.0078250   1.0078250  15.9949146   1.0078250   1.0078250  15.9949146
 NucSpn=           0           1           1           0           1           1           0           1           1           0
 AtZEff=   0.0000000   0.0000000   0.0000000   0.0000000   0.0000000   0.0000000   0.0000000   0.0000000   0.0000000   0.0000000
 NQMom=    0.0000000   0.0000000   0.0000000   0.0000000   0.0000000   0.0000000   0.0000000   0.0000000   0.0000000   0.0000000
 NMagM=    0.0000000   2.7928460   2.7928460   0.0000000   2.7928460   2.7928460   0.0000000   2.7928460   2.7928460   0.0000000
 AtZNuc=   8.0000000   1.0000000   1.0000000   8.0000000   1.0000000   1.0000000   8.0000000   1.0000000   1.0000000   8.0000000

  Atom       201         202         203         204         205         206         207         208         209         210
 IAtWgt=           1           1          16           1           1          16           1           1          16           1
 AtmWgt=   1.0078250   1.0078250  15.9949146   1.0078250   1.0078250  15.9949146   1.0078250   1.0078250  15.9949146   1.0078250
 NucSpn=           1           1           0           1           1           0           1           1           0           1
 AtZEff=   0.0000000   0.0000000   0.0000000   0.0000000   0.0000000   0.0000000   0.0000000   0.0000000   0.0000000   0.0000000
 NQMom=    0.0000000   0.0000000   0.0000000   0.0000000   0.0000000   0.0000000   0.0000000   0.0000000   0.0000000   0.0000000
 NMagM=    2.7928460   2.7928460   0.0000000   2.7928460   2.7928460   0.0000000   2.7928460   2.7928460   0.0000000   2.7928460
 AtZNuc=   1.0000000   1.0000000   8.0000000   1.0000000   1.0000000   8.0000000   1.0000000   1.0000000   8.0000000   1.0000000

  Atom       211         212         213         214         215         216         217         218         219         220
 IAtWgt=           1          16           1           1          16           1           1          16           1           1
 AtmWgt=   1.0078250  15.9949146   1.0078250   1.0078250  15.9949146   1.0078250   1.0078250  15.9949146   1.0078250   1.0078250
 NucSpn=           1           0           1           1           0           1           1           0           1           1
 AtZEff=   0.0000000   0.0000000   0.0000000   0.0000000   0.0000000   0.0000000   0.0000000   0.0000000   0.0000000   0.0000000
 NQMom=    0.0000000   0.0000000   0.0000000   0.0000000   0.0000000   0.0000000   0.0000000   0.0000000   0.0000000   0.0000000
 NMagM=    2.7928460   0.0000000   2.7928460   2.7928460   0.0000000   2.7928460   2.7928460   0.0000000   2.7928460   2.7928460
 AtZNuc=   1.0000000   8.0000000   1.0000000   1.0000000   8.0000000   1.0000000   1.0000000   8.0000000   1.0000000   1.0000000

  Atom       221         222         223         224         225         226         227         228         229         230
 IAtWgt=          16           1           1          16           1           1          16           1           1          16
 AtmWgt=  15.9949146   1.0078250   1.0078250  15.9949146   1.0078250   1.0078250  15.9949146   1.0078250   1.0078250  15.9949146
 NucSpn=           0           1           1           0           1           1           0           1           1           0
 AtZEff=   0.0000000   0.0000000   0.0000000   0.0000000   0.0000000   0.0000000   0.0000000   0.0000000   0.0000000   0.0000000
 NQMom=    0.0000000   0.0000000   0.0000000   0.0000000   0.0000000   0.0000000   0.0000000   0.0000000   0.0000000   0.0000000
 NMagM=    0.0000000   2.7928460   2.7928460   0.0000000   2.7928460   2.7928460   0.0000000   2.7928460   2.7928460   0.0000000
 AtZNuc=   8.0000000   1.0000000   1.0000000   8.0000000   1.0000000   1.0000000   8.0000000   1.0000000   1.0000000   8.0000000

  Atom       231         232         233         234         235         236         237         238         239         240
 IAtWgt=           1           1          16           1           1          16           1           1          16           1
 AtmWgt=   1.0078250   1.0078250  15.9949146   1.0078250   1.0078250  15.9949146   1.0078250   1.0078250  15.9949146   1.0078250
 NucSpn=           1           1           0           1           1           0           1           1           0           1
 AtZEff=   0.0000000   0.0000000   0.0000000   0.0000000   0.0000000   0.0000000   0.0000000   0.0000000   0.0000000   0.0000000
 NQMom=    0.0000000   0.0000000   0.0000000   0.0000000   0.0000000   0.0000000   0.0000000   0.0000000   0.0000000   0.0000000
 NMagM=    2.7928460   2.7928460   0.0000000   2.7928460   2.7928460   0.0000000   2.7928460   2.7928460   0.0000000   2.7928460
 AtZNuc=   1.0000000   1.0000000   8.0000000   1.0000000   1.0000000   8.0000000   1.0000000   1.0000000   8.0000000   1.0000000

  Atom       241         242         243         244         245         246         247         248         249         250
 IAtWgt=           1          16           1           1          16           1           1          16           1           1
 AtmWgt=   1.0078250  15.9949146   1.0078250   1.0078250  15.9949146   1.0078250   1.0078250  15.9949146   1.0078250   1.0078250
 NucSpn=           1           0           1           1           0           1           1           0           1           1
 AtZEff=   0.0000000   0.0000000   0.0000000   0.0000000   0.0000000   0.0000000   0.0000000   0.0000000   0.0000000   0.0000000
 NQMom=    0.0000000   0.0000000   0.0000000   0.0000000   0.0000000   0.0000000   0.0000000   0.0000000   0.0000000   0.0000000
 NMagM=    2.7928460   0.0000000   2.7928460   2.7928460   0.0000000   2.7928460   2.7928460   0.0000000   2.7928460   2.7928460
 AtZNuc=   1.0000000   8.0000000   1.0000000   1.0000000   8.0000000   1.0000000   1.0000000   8.0000000   1.0000000   1.0000000

  Atom       251         252         253         254         255         256         257         258         259         260
 IAtWgt=          16           1           1          16           1           1          16           1           1          16
 AtmWgt=  15.9949146   1.0078250   1.0078250  15.9949146   1.0078250   1.0078250  15.9949146   1.0078250   1.0078250  15.9949146
 NucSpn=           0           1           1           0           1           1           0           1           1           0
 AtZEff=   0.0000000   0.0000000   0.0000000   0.0000000   0.0000000   0.0000000   0.0000000   0.0000000   0.0000000   0.0000000
 NQMom=    0.0000000   0.0000000   0.0000000   0.0000000   0.0000000   0.0000000   0.0000000   0.0000000   0.0000000   0.0000000
 NMagM=    0.0000000   2.7928460   2.7928460   0.0000000   2.7928460   2.7928460   0.0000000   2.7928460   2.7928460   0.0000000
 AtZNuc=   8.0000000   1.0000000   1.0000000   8.0000000   1.0000000   1.0000000   8.0000000   1.0000000   1.0000000   8.0000000

  Atom       261         262         263         264         265         266         267         268         269         270
 IAtWgt=           1           1          16           1           1          16           1           1          16           1
 AtmWgt=   1.0078250   1.0078250  15.9949146   1.0078250   1.0078250  15.9949146   1.0078250   1.0078250  15.9949146   1.0078250
 NucSpn=           1           1           0           1           1           0           1           1           0           1
 AtZEff=   0.0000000   0.0000000   0.0000000   0.0000000   0.0000000   0.0000000   0.0000000   0.0000000   0.0000000   0.0000000
 NQMom=    0.0000000   0.0000000   0.0000000   0.0000000   0.0000000   0.0000000   0.0000000   0.0000000   0.0000000   0.0000000
 NMagM=    2.7928460   2.7928460   0.0000000   2.7928460   2.7928460   0.0000000   2.7928460   2.7928460   0.0000000   2.7928460
 AtZNuc=   1.0000000   1.0000000   8.0000000   1.0000000   1.0000000   8.0000000   1.0000000   1.0000000   8.0000000   1.0000000

  Atom       271         272         273         274         275         276         277         278         279         280
 IAtWgt=           1          16           1           1          16           1           1          16           1           1
 AtmWgt=   1.0078250  15.9949146   1.0078250   1.0078250  15.9949146   1.0078250   1.0078250  15.9949146   1.0078250   1.0078250
 NucSpn=           1           0           1           1           0           1           1           0           1           1
 AtZEff=   0.0000000   0.0000000   0.0000000   0.0000000   0.0000000   0.0000000   0.0000000   0.0000000   0.0000000   0.0000000
 NQMom=    0.0000000   0.0000000   0.0000000   0.0000000   0.0000000   0.0000000   0.0000000   0.0000000   0.0000000   0.0000000
 NMagM=    2.7928460   0.0000000   2.7928460   2.7928460   0.0000000   2.7928460   2.7928460   0.0000000   2.7928460   2.7928460
 AtZNuc=   1.0000000   8.0000000   1.0000000   1.0000000   8.0000000   1.0000000   1.0000000   8.0000000   1.0000000   1.0000000

  Atom       281         282         283         284         285         286         287         288         289         290
 IAtWgt=          16           1           1          16           1           1          16           1           1          16
 AtmWgt=  15.9949146   1.0078250   1.0078250  15.9949146   1.0078250   1.0078250  15.9949146   1.0078250   1.0078250  15.9949146
 NucSpn=           0           1           1           0           1           1           0           1           1           0
 AtZEff=   0.0000000   0.0000000   0.0000000   0.0000000   0.0000000   0.0000000   0.0000000   0.0000000   0.0000000   0.0000000
 NQMom=    0.0000000   0.0000000   0.0000000   0.0000000   0.0000000   0.0000000   0.0000000   0.0000000   0.0000000   0.0000000
 NMagM=    0.0000000   2.7928460   2.7928460   0.0000000   2.7928460   2.7928460   0.0000000   2.7928460   2.7928460   0.0000000
 AtZNuc=   8.0000000   1.0000000   1.0000000   8.0000000   1.0000000   1.0000000   8.0000000   1.0000000   1.0000000   8.0000000

  Atom       291         292         293         294         295         296         297         298         299         300
 IAtWgt=           1           1          16           1           1          16           1           1          16           1
 AtmWgt=   1.0078250   1.0078250  15.9949146   1.0078250   1.0078250  15.9949146   1.0078250   1.0078250  15.9949146   1.0078250
 NucSpn=           1           1           0           1           1           0           1           1           0           1
 AtZEff=   0.0000000   0.0000000   0.0000000   0.0000000   0.0000000   0.0000000   0.0000000   0.0000000   0.0000000   0.0000000
 NQMom=    0.0000000   0.0000000   0.0000000   0.0000000   0.0000000   0.0000000   0.0000000   0.0000000   0.0000000   0.0000000
 NMagM=    2.7928460   2.7928460   0.0000000   2.7928460   2.7928460   0.0000000   2.7928460   2.7928460   0.0000000   2.7928460
 AtZNuc=   1.0000000   1.0000000   8.0000000   1.0000000   1.0000000   8.0000000   1.0000000   1.0000000   8.0000000   1.0000000

  Atom       301         302         303         304         305         306         307         308         309         310
 IAtWgt=           1          16           1           1          16           1           1          16           1           1
 AtmWgt=   1.0078250  15.9949146   1.0078250   1.0078250  15.9949146   1.0078250   1.0078250  15.9949146   1.0078250   1.0078250
 NucSpn=           1           0           1           1           0           1           1           0           1           1
 AtZEff=   0.0000000   0.0000000   0.0000000   0.0000000   0.0000000   0.0000000   0.0000000   0.0000000   0.0000000   0.0000000
 NQMom=    0.0000000   0.0000000   0.0000000   0.0000000   0.0000000   0.0000000   0.0000000   0.0000000   0.0000000   0.0000000
 NMagM=    2.7928460   0.0000000   2.7928460   2.7928460   0.0000000   2.7928460   2.7928460   0.0000000   2.7928460   2.7928460
 AtZNuc=   1.0000000   8.0000000   1.0000000   1.0000000   8.0000000   1.0000000   1.0000000   8.0000000   1.0000000   1.0000000

  Atom       311         312         313         314         315         316         317         318         319         320
 IAtWgt=          16           1           1          16           1           1          16           1           1          16
 AtmWgt=  15.9949146   1.0078250   1.0078250  15.9949146   1.0078250   1.0078250  15.9949146   1.0078250   1.0078250  15.9949146
 NucSpn=           0           1           1           0           1           1           0           1           1           0
 AtZEff=   0.0000000   0.0000000   0.0000000   0.0000000   0.0000000   0.0000000   0.0000000   0.0000000   0.0000000   0.0000000
 NQMom=    0.0000000   0.0000000   0.0000000   0.0000000   0.0000000   0.0000000   0.0000000   0.0000000   0.0000000   0.0000000
 NMagM=    0.0000000   2.7928460   2.7928460   0.0000000   2.7928460   2.7928460   0.0000000   2.7928460   2.7928460   0.0000000
 AtZNuc=   8.0000000   1.0000000   1.0000000   8.0000000   1.0000000   1.0000000   8.0000000   1.0000000   1.0000000   8.0000000

  Atom       321         322         323         324         325         326         327         328         329         330
 IAtWgt=           1           1          16           1           1          16           1           1          16           1
 AtmWgt=   1.0078250   1.0078250  15.9949146   1.0078250   1.0078250  15.9949146   1.0078250   1.0078250  15.9949146   1.0078250
 NucSpn=           1           1           0           1           1           0           1           1           0           1
 AtZEff=   0.0000000   0.0000000   0.0000000   0.0000000   0.0000000   0.0000000   0.0000000   0.0000000   0.0000000   0.0000000
 NQMom=    0.0000000   0.0000000   0.0000000   0.0000000   0.0000000   0.0000000   0.0000000   0.0000000   0.0000000   0.0000000
 NMagM=    2.7928460   2.7928460   0.0000000   2.7928460   2.7928460   0.0000000   2.7928460   2.7928460   0.0000000   2.7928460
 AtZNuc=   1.0000000   1.0000000   8.0000000   1.0000000   1.0000000   8.0000000   1.0000000   1.0000000   8.0000000   1.0000000

  Atom       331         332         333         334         335         336         337         338         339         340
 IAtWgt=           1          16           1           1          16           1           1          16           1           1
 AtmWgt=   1.0078250  15.9949146   1.0078250   1.0078250  15.9949146   1.0078250   1.0078250  15.9949146   1.0078250   1.0078250
 NucSpn=           1           0           1           1           0           1           1           0           1           1
 AtZEff=   0.0000000   0.0000000   0.0000000   0.0000000   0.0000000   0.0000000   0.0000000   0.0000000   0.0000000   0.0000000
 NQMom=    0.0000000   0.0000000   0.0000000   0.0000000   0.0000000   0.0000000   0.0000000   0.0000000   0.0000000   0.0000000
 NMagM=    2.7928460   0.0000000   2.7928460   2.7928460   0.0000000   2.7928460   2.7928460   0.0000000   2.7928460   2.7928460
 AtZNuc=   1.0000000   8.0000000   1.0000000   1.0000000   8.0000000   1.0000000   1.0000000   8.0000000   1.0000000   1.0000000

  Atom       341         342         343         344         345         346         347         348         349         350
 IAtWgt=          16           1           1          16           1           1          16           1           1          16
 AtmWgt=  15.9949146   1.0078250   1.0078250  15.9949146   1.0078250   1.0078250  15.9949146   1.0078250   1.0078250  15.9949146
 NucSpn=           0           1           1           0           1           1           0           1           1           0
 AtZEff=   0.0000000   0.0000000   0.0000000   0.0000000   0.0000000   0.0000000   0.0000000   0.0000000   0.0000000   0.0000000
 NQMom=    0.0000000   0.0000000   0.0000000   0.0000000   0.0000000   0.0000000   0.0000000   0.0000000   0.0000000   0.0000000
 NMagM=    0.0000000   2.7928460   2.7928460   0.0000000   2.7928460   2.7928460   0.0000000   2.7928460   2.7928460   0.0000000
 AtZNuc=   8.0000000   1.0000000   1.0000000   8.0000000   1.0000000   1.0000000   8.0000000   1.0000000   1.0000000   8.0000000

  Atom       351         352         353         354         355         356         357         358         359         360
 IAtWgt=           1           1          16           1           1          16           1           1          16           1
 AtmWgt=   1.0078250   1.0078250  15.9949146   1.0078250   1.0078250  15.9949146   1.0078250   1.0078250  15.9949146   1.0078250
 NucSpn=           1           1           0           1           1           0           1           1           0           1
 AtZEff=   0.0000000   0.0000000   0.0000000   0.0000000   0.0000000   0.0000000   0.0000000   0.0000000   0.0000000   0.0000000
 NQMom=    0.0000000   0.0000000   0.0000000   0.0000000   0.0000000   0.0000000   0.0000000   0.0000000   0.0000000   0.0000000
 NMagM=    2.7928460   2.7928460   0.0000000   2.7928460   2.7928460   0.0000000   2.7928460   2.7928460   0.0000000   2.7928460
 AtZNuc=   1.0000000   1.0000000   8.0000000   1.0000000   1.0000000   8.0000000   1.0000000   1.0000000   8.0000000   1.0000000

  Atom       361         362         363         364         365         366         367         368         369         370
 IAtWgt=           1          16           1           1          16           1           1          16           1           1
 AtmWgt=   1.0078250  15.9949146   1.0078250   1.0078250  15.9949146   1.0078250   1.0078250  15.9949146   1.0078250   1.0078250
 NucSpn=           1           0           1           1           0           1           1           0           1           1
 AtZEff=   0.0000000   0.0000000   0.0000000   0.0000000   0.0000000   0.0000000   0.0000000   0.0000000   0.0000000   0.0000000
 NQMom=    0.0000000   0.0000000   0.0000000   0.0000000   0.0000000   0.0000000   0.0000000   0.0000000   0.0000000   0.0000000
 NMagM=    2.7928460   0.0000000   2.7928460   2.7928460   0.0000000   2.7928460   2.7928460   0.0000000   2.7928460   2.7928460
 AtZNuc=   1.0000000   8.0000000   1.0000000   1.0000000   8.0000000   1.0000000   1.0000000   8.0000000   1.0000000   1.0000000

  Atom       371         372         373         374         375         376         377         378         379         380
 IAtWgt=          16           1           1          16           1           1          16           1           1          16
 AtmWgt=  15.9949146   1.0078250   1.0078250  15.9949146   1.0078250   1.0078250  15.9949146   1.0078250   1.0078250  15.9949146
 NucSpn=           0           1           1           0           1           1           0           1           1           0
 AtZEff=   0.0000000   0.0000000   0.0000000   0.0000000   0.0000000   0.0000000   0.0000000   0.0000000   0.0000000   0.0000000
 NQMom=    0.0000000   0.0000000   0.0000000   0.0000000   0.0000000   0.0000000   0.0000000   0.0000000   0.0000000   0.0000000
 NMagM=    0.0000000   2.7928460   2.7928460   0.0000000   2.7928460   2.7928460   0.0000000   2.7928460   2.7928460   0.0000000
 AtZNuc=   8.0000000   1.0000000   1.0000000   8.0000000   1.0000000   1.0000000   8.0000000   1.0000000   1.0000000   8.0000000

  Atom       381         382         383         384         385
 IAtWgt=           1           1          16           1           1
 AtmWgt=   1.0078250   1.0078250  15.9949146   1.0078250   1.0078250
 NucSpn=           1           1           0           1           1
 AtZEff=   0.0000000   0.0000000   0.0000000   0.0000000   0.0000000
 NQMom=    0.0000000   0.0000000   0.0000000   0.0000000   0.0000000
 NMagM=    2.7928460   2.7928460   0.0000000   2.7928460   2.7928460
 AtZNuc=   1.0000000   1.0000000   8.0000000   1.0000000   1.0000000
 Leave Link  101 at Fri May  4 22:52:54 2018, MaxMem= 14763950080 cpu:        33.3
 (Enter /cm/shared/gaussian/g09.e01/intel64-sandybridge/g09/l103.exe)

 GradGradGradGradGradGradGradGradGradGradGradGradGradGradGradGradGradGrad
 Berny optimization.
 Initialization pass.
 Trust Radius=3.00D-01 FncErr=1.00D-07 GrdErr=1.00D-07
 Number of steps in this run=      2 maximum allowed number of steps=      2.
 GradGradGradGradGradGradGradGradGradGradGradGradGradGradGradGradGradGrad

 Leave Link  103 at Fri May  4 22:52:54 2018, MaxMem= 14763950080 cpu:         3.7
 (Enter /cm/shared/gaussian/g09.e01/intel64-sandybridge/g09/l202.exe)
 Symmetry turned off by external request.
 Stoichiometry    BrH256O128(1-)
 Framework group  C1[X(BrH256O128)]
 Deg. of freedom  1149
 Full point group                 C1      NOp   1
                          Input orientation:                          
 ---------------------------------------------------------------------
 Center     Atomic      Atomic             Coordinates (Angstroms)
 Number     Number       Type             X           Y           Z
 ---------------------------------------------------------------------
      1         35           0       20.000000   20.000000   20.000000
      2          8           0       17.850000   17.890000   19.650000
      3          1           0       17.820000   17.540000   20.540000
      4          1           0       18.650000   18.410000   19.630000
      5          8           0       17.430000   21.890000   19.710000
      6          1           0       17.920000   22.620000   19.320000
      7          1           0       18.070000   21.180000   19.780000
      8          8           0       22.310000   17.890000   20.080000
      9          1           0       21.660000   17.420000   19.560000
     10          1           0       21.880000   18.710000   20.310000
     11          8           0       19.890000   21.490000   23.140000
     12          1           0       19.900000   21.430000   22.190000
     13          1           0       19.720000   20.590000   23.430000
     14          8           0       22.780000   21.910000   18.840000
     15          1           0       21.920000   21.570000   19.070000
     16          1           0       23.260000   21.160000   18.490000
     17          8           0       20.300000   21.960000   16.530000
     18          1           0       20.230000   21.320000   17.250000
     19          1           0       19.770000   22.700000   16.820000
     20          8           0       20.670000   16.820000   22.360000
     21          1           0       20.900000   17.350000   21.590000
     22          1           0       19.840000   16.410000   22.130000
     23          8           0       19.520000   17.490000   16.860000
     24          1           0       19.530000   17.610000   17.810000
     25          1           0       18.730000   17.950000   16.570000
     26          8           0       20.400000   16.220000   19.160000
     27          1           0       20.120000   15.890000   20.010000
     28          1           0       19.860000   15.750000   18.530000
     29          8           0       19.230000   18.980000   23.840000
     30          1           0       19.880000   18.330000   23.570000
     31          1           0       18.460000   18.470000   24.080000
     32          8           0       20.840000   24.520000   19.830000
     33          1           0       21.160000   23.830000   20.400000
     34          1           0       21.190000   25.330000   20.200000
     35          8           0       16.250000   19.430000   22.520000
     36          1           0       16.930000   20.100000   22.610000
     37          1           0       15.630000   19.620000   23.220000
     38          8           0       23.860000   21.830000   22.050000
     39          1           0       23.100000   22.150000   21.570000
     40          1           0       23.500000   21.550000   22.900000
     41          8           0       21.430000   19.060000   15.590000
     42          1           0       21.390000   20.020000   15.640000
     43          1           0       20.720000   18.760000   16.160000
     44          8           0       21.470000   23.550000   22.470000
     45          1           0       20.770000   24.180000   22.290000
     46          1           0       21.040000   22.840000   22.950000
     47          8           0       15.180000   20.380000   18.570000
     48          1           0       15.840000   20.510000   19.250000
     49          1           0       14.910000   21.270000   18.330000
     50          8           0       23.990000   19.440000   18.230000
     51          1           0       23.690000   18.550000   18.430000
     52          1           0       24.530000   19.340000   17.440000
     53          8           0       19.080000   24.250000   17.670000
     54          1           0       19.600000   24.200000   18.470000
     55          1           0       19.200000   25.150000   17.370000
     56          8           0       24.370000   17.220000   21.740000
     57          1           0       23.530000   17.380000   21.300000
     58          1           0       24.900000   18.000000   21.540000
     59          8           0       17.500000   15.390000   18.410000
     60          1           0       17.590000   16.270000   18.790000
     61          1           0       17.290000   15.560000   17.490000
     62          8           0       16.380000   18.590000   16.680000
     63          1           0       16.250000   17.640000   16.580000
     64          1           0       16.240000   18.760000   17.610000
     65          8           0       18.230000   15.800000   21.480000
     66          1           0       17.280000   15.920000   21.500000
     67          1           0       18.370000   14.880000   21.720000
     68          8           0       15.070000   23.020000   20.540000
     69          1           0       15.950000   22.640000   20.510000
     70          1           0       15.110000   23.760000   19.930000
     71          8           0       23.120000   24.550000   17.910000
     72          1           0       22.290000   24.950000   17.660000
     73          1           0       22.870000   23.700000   18.290000
     74          8           0       15.730000   16.730000   21.830000
     75          1           0       16.070000   17.620000   21.940000
     76          1           0       14.860000   16.750000   22.220000
     77          8           0       18.810000   21.520000   14.170000
     78          1           0       19.200000   22.120000   13.530000
     79          1           0       19.210000   21.770000   15.000000
     80          8           0       19.670000   22.350000   25.830000
     81          1           0       19.120000   23.110000   26.030000
     82          1           0       19.310000   22.010000   25.010000
     83          8           0       22.760000   20.730000   24.640000
     84          1           0       23.220000   19.950000   24.940000
     85          1           0       21.900000   20.680000   25.060000
     86          8           0       25.440000   22.930000   19.210000
     87          1           0       24.550000   22.800000   18.890000
     88          1           0       25.850000   23.510000   18.560000
     89          8           0       21.510000   15.490000   15.970000
     90          1           0       22.350000   15.850000   16.280000
     91          1           0       20.870000   16.170000   16.190000
     92          8           0       19.000000   25.230000   22.380000
     93          1           0       18.400000   25.280000   23.130000
     94          1           0       18.420000   25.130000   21.620000
     95          8           0       17.680000   16.620000   24.320000
     96          1           0       16.760000   16.400000   24.470000
     97          1           0       17.930000   16.120000   23.540000
     98          8           0       21.600000   15.070000   24.220000
     99          1           0       21.270000   15.620000   23.510000
    100          1           0       21.770000   15.690000   24.940000
    101          8           0       23.650000   16.890000   16.450000
    102          1           0       24.600000   16.920000   16.610000
    103          1           0       23.470000   17.660000   15.920000
    104          8           0       16.860000   19.650000   14.210000
    105          1           0       16.830000   19.250000   15.080000
    106          1           0       17.460000   20.390000   14.310000
    107          8           0       16.300000   24.080000   16.350000
    108          1           0       17.220000   23.830000   16.440000
    109          1           0       16.180000   24.190000   15.410000
    110          8           0       26.610000   21.180000   21.250000
    111          1           0       25.840000   20.710000   21.570000
    112          1           0       26.250000   21.920000   20.760000
    113          8           0       25.400000   23.970000   22.290000
    114          1           0       24.770000   23.270000   22.110000
    115          1           0       25.070000   24.720000   21.780000
    116          8           0       23.130000   14.190000   17.940000
    117          1           0       23.760000   14.900000   17.830000
    118          1           0       22.620000   14.440000   18.700000
    119          8           0       21.920000   13.880000   20.770000
    120          1           0       21.890000   14.240000   21.660000
    121          1           0       21.350000   13.110000   20.800000
    122          8           0       20.870000   18.710000   26.140000
    123          1           0       21.210000   17.820000   26.170000
    124          1           0       21.080000   19.080000   27.000000
    125          8           0       20.350000   17.150000   13.380000
    126          1           0       20.310000   16.280000   13.770000
    127          1           0       20.730000   17.700000   14.060000
    128          8           0       25.020000   21.240000   15.830000
    129          1           0       25.490000   21.210000   16.670000
    130          1           0       24.680000   22.140000   15.790000
    131          8           0       19.860000   13.530000   17.370000
    132          1           0       19.060000   14.050000   17.430000
    133          1           0       20.500000   14.120000   16.970000
    134          8           0       13.110000   19.550000   21.280000
    135          1           0       13.610000   19.760000   22.070000
    136          1           0       13.070000   20.370000   20.790000
    137          8           0       14.160000   22.560000   17.340000
    138          1           0       13.500000   22.760000   16.680000
    139          1           0       14.800000   23.270000   17.260000
    140          8           0       13.730000   15.860000   18.900000
    141          1           0       13.160000   16.610000   19.070000
    142          1           0       14.540000   16.070000   19.360000
    143          8           0       22.590000   26.170000   21.130000
    144          1           0       22.430000   26.390000   22.050000
    145          1           0       23.550000   26.160000   21.050000
    146          8           0       17.190000   12.950000   19.620000
    147          1           0       17.430000   13.760000   19.160000
    148          1           0       17.770000   12.290000   19.240000
    149          8           0       22.000000   23.880000   26.190000
    150          1           0       22.500000   24.190000   25.440000
    151          1           0       21.330000   23.310000   25.810000
    152          8           0       15.710000   25.400000   18.810000
    153          1           0       16.390000   25.960000   19.200000
    154          1           0       16.050000   25.180000   17.940000
    155          8           0       12.940000   19.560000   17.090000
    156          1           0       13.090000   19.120000   16.250000
    157          1           0       13.740000   20.060000   17.250000
    158          8           0       24.180000   18.900000   14.270000
    159          1           0       23.280000   19.100000   13.990000
    160          1           0       24.470000   19.700000   14.720000
    161          8           0       26.340000   15.490000   20.840000
    162          1           0       25.600000   16.060000   21.020000
    163          1           0       26.010000   14.600000   21.010000
    164          8           0       17.120000   15.590000   15.410000
    165          1           0       17.830000   15.200000   14.900000
    166          1           0       16.560000   14.850000   15.660000
    167          8           0       12.620000   21.960000   19.800000
    168          1           0       13.390000   22.270000   20.270000
    169          1           0       12.900000   21.890000   18.890000
    170          8           0       25.320000   16.590000   24.600000
    171          1           0       24.820000   16.620000   23.780000
    172          1           0       25.770000   15.750000   24.580000
    173          8           0       27.220000   20.800000   17.980000
    174          1           0       26.630000   21.500000   18.280000
    175          1           0       28.020000   21.260000   17.710000
    176          8           0       21.000000   21.090000   27.720000
    177          1           0       20.490000   21.260000   26.920000
    178          1           0       20.910000   21.890000   28.240000
    179          8           0       14.060000   20.290000   23.850000
    180          1           0       14.040000   19.930000   24.740000
    181          1           0       13.930000   21.230000   23.970000
    182          8           0       24.100000   18.620000   25.670000
    183          1           0       24.370000   17.750000   25.360000
    184          1           0       24.890000   19.150000   25.610000
    185          8           0       17.930000   26.830000   19.780000
    186          1           0       18.790000   27.030000   19.410000
    187          1           0       17.810000   27.490000   20.460000
    188          8           0       23.560000   23.810000   15.100000
    189          1           0       23.670000   24.290000   14.270000
    190          1           0       24.060000   24.320000   15.730000
    191          8           0       21.460000   27.340000   18.580000
    192          1           0       21.760000   28.250000   18.610000
    193          1           0       21.830000   26.940000   19.370000
    194          8           0       21.340000   25.470000   14.430000
    195          1           0       21.810000   24.720000   14.790000
    196          1           0       20.440000   25.360000   14.730000
    197          8           0       19.180000   15.720000   26.990000
    198          1           0       18.360000   16.140000   27.240000
    199          1           0       19.320000   16.000000   26.080000
    200          8           0       19.490000   26.950000   17.010000
    201          1           0       19.270000   27.880000   17.060000
    202          1           0       20.310000   26.860000   17.490000
    203          8           0       20.830000   27.480000   23.140000
    204          1           0       20.300000   26.770000   22.790000
    205          1           0       20.600000   27.510000   24.070000
    206          8           0       25.030000   21.670000   26.150000
    207          1           0       24.130000   21.680000   25.840000
[...]
   Z335      29.59311   0.00248   0.00000   0.00362   0.00406  29.59717
   X336      28.34589  -0.02768   0.00000  -0.02511  -0.02485  28.32104
   Y336      26.34278   0.00814   0.00000  -0.00393  -0.00419  26.33859
   Z336      29.97106   0.00201   0.00000  -0.00109  -0.00062  29.97043
   X337      29.89547  -0.00128   0.00000  -0.00088  -0.00064  29.89483
   Y337      25.30343  -0.00013   0.00000  -0.00149  -0.00171  25.30172
   Z337      27.77897  -0.00335   0.00000  -0.00178  -0.00134  27.77764
   X338      38.55041  -0.02024   0.00000  -0.01657  -0.01647  38.53395
   Y338      47.98015   0.00164   0.00000  -0.00373  -0.00335  47.97680
   Z338      52.51549   0.02385   0.00000   0.01735   0.01728  52.53277
   X339      39.79763   0.01530   0.00000   0.00880   0.00892  39.80656
   Y339      46.92190  -0.00682   0.00000   0.00055   0.00097  46.92287
   Z339      51.74070  -0.01442   0.00000  -0.01086  -0.01095  51.72975
   X340      38.30475   0.00229   0.00000   0.00265   0.00267  38.30742
   Y340      49.32185   0.00123   0.00000  -0.00513  -0.00478  49.31708
   Z340      51.32496  -0.00955   0.00000  -0.00651  -0.00658  51.31838
   X341      42.02751   0.00751   0.00000   0.00001  -0.00075  42.02676
   Y341      52.57218   0.01949   0.00000   0.01603   0.01627  52.58845
   Z341      28.74273   0.00315   0.00000  -0.00142  -0.00164  28.74109
   X342      40.93147  -0.00236   0.00000  -0.00459  -0.00538  40.92609
   Y342      53.91389   0.00761   0.00000   0.01188   0.01209  53.92598
   Z342      29.25296   0.00271   0.00000   0.00433   0.00412  29.25708
   X343      40.91257  -0.00672   0.00000   0.00400   0.00327  40.91584
   Y343      51.24937  -0.02268   0.00000  -0.02023  -0.02003  51.22934
   Z343      28.23251  -0.01085   0.00000  -0.01157  -0.01174  28.22076
   X344      24.86880  -0.00357   0.00000  -0.00438  -0.00451  24.86429
   Y344      34.69537   0.00246   0.00000   0.00090   0.00048  34.69585
   Z344      27.41993   0.01210   0.00000   0.00753   0.00801  27.42794
   X345      25.36012   0.00897   0.00000   0.01238   0.01222  25.37235
   Y345      34.20404  -0.00275   0.00000  -0.00063  -0.00105  34.20299
   Z345      25.75697  -0.00914   0.00000  -0.00299  -0.00252  25.75444
   X346      23.07356  -0.00492   0.00000  -0.00663  -0.00674  23.06681
   Y346      34.43081  -0.00088   0.00000  -0.00101  -0.00150  34.42931
   Z346      27.43882  -0.00184   0.00000  -0.00395  -0.00341  27.43541
   X347      31.04820  -0.00831   0.00000  -0.01235  -0.01273  31.03547
   Y347      36.22605  -0.00535   0.00000   0.00117   0.00091  36.22696
   Z347      20.67360  -0.00163   0.00000   0.00086   0.00114  20.67475
   X348      31.08599   0.00275   0.00000   0.00537   0.00491  31.09091
   Y348      37.47327   0.00373   0.00000   0.00222   0.00194  37.47521
   Z348      19.36969  -0.00736   0.00000  -0.00782  -0.00756  19.36213
   X349      31.40725   0.00267   0.00000   0.00286   0.00249  31.40974
   Y349      37.15202   0.00310   0.00000   0.00027   0.00004  37.15206
   Z349      22.18538   0.01199   0.00000   0.01167   0.01193  22.19732
   X350      53.72491  -0.01266   0.00000  -0.00873  -0.00890  53.71601
   Y350      46.50616   0.00898   0.00000   0.00503   0.00585  46.51201
   Z350      41.04485   0.00013   0.00000  -0.00326  -0.00375  41.04110
   X351      52.59108   0.00063   0.00000  -0.00017  -0.00028  52.59080
   Y351      45.20225   0.00007   0.00000   0.00043   0.00121  45.20346
   Z351      41.64956   0.00033   0.00000   0.00134   0.00090  41.65046
   X352      55.21780   0.00821   0.00000   0.00234   0.00219  55.21998
   Y352      45.61799  -0.01036   0.00000  -0.01018  -0.00931  45.60868
   Z352      40.57242  -0.00178   0.00000   0.00092   0.00039  40.57281
   X353      29.38524  -0.00276   0.00000   0.00408   0.00345  29.38869
   Y353      46.63844   0.02394   0.00000   0.01613   0.01586  46.65430
   Z353      25.49241   0.02139   0.00000   0.01681   0.01702  25.50943
   X354      30.33010   0.00477   0.00000  -0.00385  -0.00446  30.32564
   Y354      45.42902  -0.01946   0.00000  -0.01207  -0.01231  45.41671
   Z354      24.56644  -0.01683   0.00000  -0.01295  -0.01275  24.55369
   X355      27.64669  -0.00044   0.00000   0.00465   0.00402  27.65072
   Y355      46.24160  -0.00519   0.00000  -0.00439  -0.00473  46.23687
   Z355      25.13336  -0.00037   0.00000   0.00322   0.00349  25.13685
   X356      30.19782  -0.00547   0.00000  -0.01167  -0.01088  30.18694
   Y356      24.13180  -0.00990   0.00000  -0.00408  -0.00410  24.12771
   Z356      45.01328  -0.01276   0.00000  -0.00425  -0.00381  45.00947
   X357      30.21672  -0.00113   0.00000  -0.00290  -0.00212  30.21460
   Y357      25.22784   0.01580   0.00000   0.01383   0.01383  25.24167
   Z357      46.43057   0.01694   0.00000   0.01134   0.01177  46.44234
   X358      29.55532  -0.00042   0.00000  -0.00079   0.00007  29.55539
   Y358      22.56333  -0.00441   0.00000  -0.00677  -0.00681  22.55652
   Z358      45.65578   0.00258   0.00000   0.00411   0.00459  45.66038
   X359      45.99593   0.02392   0.00000   0.01839   0.01879  46.01472
   Y359      23.09245  -0.01217   0.00000  -0.00772  -0.00731  23.08515
   Z359      30.51908   0.00478   0.00000   0.00400   0.00399  30.52307
   X360      44.86210  -0.01110   0.00000  -0.00756  -0.00714  44.85496
   Y360      23.47040   0.00374   0.00000   0.00139   0.00178  23.47218
   Z360      31.86078   0.00703   0.00000   0.00188   0.00190  31.86269
   X361      45.22115  -0.00944   0.00000  -0.00563  -0.00529  45.21585
   Y361      23.82945   0.00582   0.00000   0.00045   0.00082  23.83027
   Z361      29.06399  -0.01153   0.00000  -0.00541  -0.00540  29.05859
   X362      37.51106   0.01698   0.00000   0.00811   0.00796  37.51903
   Y362      51.72180   0.00515   0.00000   0.00591   0.00621  51.72801
   Z362      48.73604  -0.00082   0.00000  -0.00530  -0.00538  48.73066
   X363      37.17091  -0.00009   0.00000   0.00166   0.00150  37.17241
   Y363      53.08241   0.00453   0.00000   0.00478   0.00508  53.08748
   Z363      49.88877   0.00233   0.00000   0.00147   0.00138  49.89015
   X364      35.88590  -0.01969   0.00000  -0.01446  -0.01460  35.87129
   Y364      51.17378  -0.00770   0.00000  -0.00769  -0.00746  51.16632
   Z364      48.18802  -0.00320   0.00000   0.00089   0.00086  48.18887
   X365      21.44839  -0.00419   0.00000   0.00214   0.00222  21.45061
   Y365      42.46215  -0.01369   0.00000  -0.01463  -0.01498  42.44716
   Z365      44.50305   0.01036   0.00000   0.01326   0.01375  44.51680
   X366      22.71451  -0.00070   0.00000  -0.01033  -0.01031  22.70419
   Y366      43.46370   0.00838   0.00000   0.00717   0.00686  43.47056
   Z366      43.67157  -0.00670   0.00000  -0.00778  -0.00734  43.66423
   X367      20.88147   0.00054   0.00000  -0.00001   0.00007  20.88154
   Y367      43.50150   0.00253   0.00000   0.00348   0.00312  43.50461
   Z367      45.88255  -0.00031   0.00000  -0.00073  -0.00023  45.88232
   X368      47.33764  -0.00576   0.00000  -0.00433  -0.00435  47.33329
   Y368      29.80098  -0.00288   0.00000  -0.00259  -0.00219  29.79879
   Z368      24.60423  -0.01533   0.00000  -0.01107  -0.01119  24.59305
   X369      48.07463   0.00010   0.00000  -0.00551  -0.00548  48.06915
   Y369      29.78208   0.00212   0.00000   0.00144   0.00188  29.78396
   Z369      26.24830   0.01122   0.00000   0.00601   0.00587  26.25416
   X370      46.60065   0.00157   0.00000   0.00240   0.00231  46.60295
   Y370      31.46394   0.00222   0.00000   0.00284   0.00321  31.46715
   Z370      24.45306   0.00608   0.00000   0.00905   0.00893  24.46199
   X371      32.01196   0.00873   0.00000   0.00501   0.00486  32.01682
   Y371      51.06040   0.00645   0.00000   0.00971   0.00979  51.07019
   Z371      47.86676   0.00378   0.00000  -0.00419  -0.00411  47.86266
   X372      30.72695  -0.01053   0.00000  -0.00652  -0.00670  30.72025
   Y372      50.77694  -0.01275   0.00000  -0.01843  -0.01841  50.75854
   Z372      46.61954  -0.01414   0.00000  -0.01294  -0.01281  46.60674
   X373      31.80409  -0.00075   0.00000  -0.00265  -0.00285  31.80124
   Y373      52.79895   0.00650   0.00000   0.00905   0.00913  52.80808
   Z373      48.32030   0.00532   0.00000   0.00749   0.00756  48.32786
   X374      53.85719   0.02077   0.00000   0.01448   0.01494  53.87214
   Y374      30.67026   0.01044   0.00000   0.00100   0.00185  30.67210
   Z374      42.38656   0.01328   0.00000   0.00030  -0.00001  42.38654
   X375      54.63198   0.00221   0.00000   0.00293   0.00347  54.63545
   Y375      29.27186  -0.00316   0.00000  -0.00515  -0.00427  29.26759
   Z375      43.23693   0.00272   0.00000   0.00431   0.00399  43.24092
   X376      52.74226  -0.02548   0.00000  -0.02338  -0.02293  52.71933
   Y376      29.93326  -0.01074   0.00000  -0.00462  -0.00384  29.92942
   Z376      41.19603  -0.02183   0.00000  -0.01453  -0.01481  41.18122
   X377      20.23897  -0.02486   0.00000  -0.01714  -0.01731  20.22166
   Y377      44.71092   0.02011   0.00000   0.02343   0.02297  44.73389
   Z377      39.02284  -0.00646   0.00000  -0.01367  -0.01317  39.00967
   X378      21.05155   0.00262   0.00000  -0.00253  -0.00268  21.04887
   Y378      45.46681  -0.00334   0.00000  -0.00805  -0.00846  45.45835
   Z378      40.44014   0.00757   0.00000   0.00661   0.00708  40.44722
   X379      21.44839   0.01201   0.00000   0.00120   0.00106  21.44945
   Y379      43.55819  -0.01372   0.00000  -0.00824  -0.00866  43.54953
   Z379      38.34254  -0.00308   0.00000   0.00191   0.00239  38.34493
   X380      24.09401  -0.00898   0.00000  -0.00649  -0.00603  24.08797
   Y380      25.24674  -0.02261   0.00000  -0.01637  -0.01673  25.23001
   Z380      35.11111  -0.01550   0.00000  -0.01735  -0.01674  35.09437
   X381      24.41526   0.00492   0.00000   0.00192   0.00231  24.41758
   Y381      27.00419   0.01300   0.00000   0.00144   0.00110  27.00528
   Z381      35.33788   0.01294   0.00000   0.01663   0.01721  35.35508
   X382      24.96328   0.00057   0.00000  -0.00318  -0.00266  24.96063
   Y382      24.43416   0.00298   0.00000   0.00380   0.00349  24.43765
   Z382      36.49061   0.00269   0.00000  -0.00086  -0.00026  36.49035
   X383      41.02595   0.00370   0.00000   0.00596   0.00542  41.03137
   Y383      56.29494   0.00620   0.00000   0.00239   0.00273  56.29767
   Z383      41.06375  -0.01753   0.00000  -0.01326  -0.01350  41.05025
   X384      40.91257  -0.00057   0.00000   0.00018  -0.00037  40.91221
   Y384      57.40988   0.00149   0.00000  -0.00182  -0.00146  57.40842
   Z384      42.48104   0.00687   0.00000   0.00271   0.00246  42.48351
   X385      40.93147  -0.00546   0.00000  -0.00881  -0.00927  40.92220
   Y385      54.63198  -0.00905   0.00000  -0.00398  -0.00363  54.62835
   Z385      41.78184   0.00885   0.00000   0.00786   0.00765  41.78949
         Item               Value     Threshold  Converged?
 Maximum Force            0.042882     0.000450     NO 
 RMS     Force            0.010521     0.000300     NO 
 Maximum Displacement     0.032838     0.001800     NO 
 RMS     Displacement     0.008837     0.001200     NO 
 Predicted change in Energy=-7.248146D-02
 GradGradGradGradGradGradGradGradGradGradGradGradGradGradGradGradGradGrad

 Leave Link  103 at Sat May  5 01:34:07 2018, MaxMem= 14763950080 cpu:      3051.4
 (Enter /cm/shared/gaussian/g09.e01/intel64-sandybridge/g09/l9999.exe)
 1\1\GINC-POPLE03\Force\RPBE1PBE\CC-pVDZ\Br1H256O128(1-)\M.PELUSO\05-Ma
 y-2018\0\\#p PBE1PBE/cc-pvDZ force Counterpoise=2 noSymm\\forces on ch
 loride comput - NWATER: 128\\-1,1\Br,20.,20.,20.\O,17.85,17.89,19.65\H
 ,17.82,17.54,20.54\H,18.65,18.41,19.63\O,17.43,21.89,19.71\H,17.92,22.
 62,19.32\H,18.07,21.18,19.78\O,22.31,17.89,20.08\H,21.66,17.42,19.56\H
 ,21.88,18.71,20.31\O,19.89,21.49,23.14\H,19.9,21.43,22.19\H,19.72,20.5
 9,23.43\O,22.78,21.91,18.84\H,21.92,21.57,19.07\H,23.26,21.16,18.49\O,
 20.3,21.96,16.53\H,20.23,21.32,17.25\H,19.77,22.7,16.82\O,20.67,16.82,
 22.36\H,20.9,17.35,21.59\H,19.84,16.41,22.13\O,19.52,17.49,16.86\H,19.
 53,17.61,17.81\H,18.73,17.95,16.57\O,20.4,16.22,19.16\H,20.12,15.89,20
 .01\H,19.86,15.75,18.53\O,19.23,18.98,23.84\H,19.88,18.33,23.57\H,18.4
 6,18.47,24.08\O,20.84,24.52,19.83\H,21.16,23.83,20.4\H,21.19,25.33,20.
 2\O,16.25,19.43,22.52\H,16.93,20.1,22.61\H,15.63,19.62,23.22\O,23.86,2
 1.83,22.05\H,23.1,22.15,21.57\H,23.5,21.55,22.9\O,21.43,19.06,15.59\H,
 21.39,20.02,15.64\H,20.72,18.76,16.16\O,21.47,23.55,22.47\H,20.77,24.1
 8,22.29\H,21.04,22.84,22.95\O,15.18,20.38,18.57\H,15.84,20.51,19.25\H,
 14.91,21.27,18.33\O,23.99,19.44,18.23\H,23.69,18.55,18.43\H,24.53,19.3
 4,17.44\O,19.08,24.25,17.67\H,19.6,24.2,18.47\H,19.2,25.15,17.37\O,24.
 37,17.22,21.74\H,23.53,17.38,21.3\H,24.9,18.,21.54\O,17.5,15.39,18.41\
 H,17.59,16.27,18.79\H,17.29,15.56,17.49\O,16.38,18.59,16.68\H,16.25,17
 .64,16.58\H,16.24,18.76,17.61\O,18.23,15.8,21.48\H,17.28,15.92,21.5\H,
 18.37,14.88,21.72\O,15.07,23.02,20.54\H,15.95,22.64,20.51\H,15.11,23.7
 6,19.93\O,23.12,24.55,17.91\H,22.29,24.95,17.66\H,22.87,23.7,18.29\O,1
 5.73,16.73,21.83\H,16.07,17.62,21.94\H,14.86,16.75,22.22\O,18.81,21.52
 ,14.17\H,19.2,22.12,13.53\H,19.21,21.77,15.\O,19.67,22.35,25.83\H,19.1
 2,23.11,26.03\H,19.31,22.01,25.01\O,22.76,20.73,24.64\H,23.22,19.95,24
 .94\H,21.9,20.68,25.06\O,25.44,22.93,19.21\H,24.55,22.8,18.89\H,25.85,
 23.51,18.56\O,21.51,15.49,15.97\H,22.35,15.85,16.28\H,20.87,16.17,16.1
 9\O,19.,25.23,22.38\H,18.4,25.28,23.13\H,18.42,25.13,21.62\O,17.68,16.
 62,24.32\H,16.76,16.4,24.47\H,17.93,16.12,23.54\O,21.6,15.07,24.22\H,2
 1.27,15.62,23.51\H,21.77,15.69,24.94\O,23.65,16.89,16.45\H,24.6,16.92,
 16.61\H,23.47,17.66,15.92\O,16.86,19.65,14.21\H,16.83,19.25,15.08\H,17
 .46,20.39,14.31\O,16.3,24.08,16.35\H,17.22,23.83,16.44\H,16.18,24.19,1
 5.41\O,26.61,21.18,21.25\H,25.84,20.71,21.57\H,26.25,21.92,20.76\O,25.
 4,23.97,22.29\H,24.77,23.27,22.11\H,25.07,24.72,21.78\O,23.13,14.19,17
 .94\H,23.76,14.9,17.83\H,22.62,14.44,18.7\O,21.92,13.88,20.77\H,21.89,
 14.24,21.66\H,21.35,13.11,20.8\O,20.87,18.71,26.14\H,21.21,17.82,26.17
 \H,21.08,19.08,27.\O,20.35,17.15,13.38\H,20.31,16.28,13.77\H,20.73,17.
 7,14.06\O,25.02,21.24,15.83\H,25.49,21.21,16.67\H,24.68,22.14,15.79\O,
 19.86,13.53,17.37\H,19.06,14.05,17.43\H,20.5,14.12,16.97\O,13.11,19.55
 ,21.28\H,13.61,19.76,22.07\H,13.07,20.37,20.79\O,14.16,22.56,17.34\H,1
 3.5,22.76,16.68\H,14.8,23.27,17.26\O,13.73,15.86,18.9\H,13.16,16.61,19
 .07\H,14.54,16.07,19.36\O,22.59,26.17,21.13\H,22.43,26.39,22.05\H,23.5
 5,26.16,21.05\O,17.19,12.95,19.62\H,17.43,13.76,19.16\H,17.77,12.29,19
 .24\O,22.,23.88,26.19\H,22.5,24.19,25.44\H,21.33,23.31,25.81\O,15.71,2
 5.4,18.81\H,16.39,25.96,19.2\H,16.05,25.18,17.94\O,12.94,19.56,17.09\H
 ,13.09,19.12,16.25\H,13.74,20.06,17.25\O,24.18,18.9,14.27\H,23.28,19.1
 ,13.99\H,24.47,19.7,14.72\O,26.34,15.49,20.84\H,25.6,16.06,21.02\H,26.
 01,14.6,21.01\O,17.12,15.59,15.41\H,17.83,15.2,14.9\H,16.56,14.85,15.6
 6\O,12.62,21.96,19.8\H,13.39,22.27,20.27\H,12.9,21.89,18.89\O,25.32,16
 .59,24.6\H,24.82,16.62,23.78\H,25.77,15.75,24.58\O,27.22,20.8,17.98\H,
 26.63,21.5,18.28\H,28.02,21.26,17.71\O,21.,21.09,27.72\H,20.49,21.26,2
 6.92\H,20.91,21.89,28.24\O,14.06,20.29,23.85\H,14.04,19.93,24.74\H,13.
 93,21.23,23.97\O,24.1,18.62,25.67\H,24.37,17.75,25.36\H,24.89,19.15,25
 .61\O,17.93,26.83,19.78\H,18.79,27.03,19.41\H,17.81,27.49,20.46\O,23.5
 6,23.81,15.1\H,23.67,24.29,14.27\H,24.06,24.32,15.73\O,21.46,27.34,18.
 58\H,21.76,28.25,18.61\H,21.83,26.94,19.37\O,21.34,25.47,14.43\H,21.81
 ,24.72,14.79\H,20.44,25.36,14.73\O,19.18,15.72,26.99\H,18.36,16.14,27.
 24\H,19.32,16.,26.08\O,19.49,26.95,17.01\H,19.27,27.88,17.06\H,20.31,2
 6.86,17.49\O,20.83,27.48,23.14\H,20.3,26.77,22.79\H,20.6,27.51,24.07\O
 ,25.03,21.67,26.15\H,24.13,21.68,25.84\H,24.96,21.75,27.1\O,18.03,13.2
 7,22.33\H,17.72,13.04,21.45\H,17.3,13.02,22.91\O,13.06,24.09,22.22\H,1
 3.78,23.47,22.16\H,13.06,24.54,21.37\O,14.93,22.94,24.92\H,15.68,22.71
 ,25.47\H,14.55,23.7,25.35\O,13.08,17.18,22.54\H,13.,17.9,21.91\H,13.03
 ,17.61,23.4\O,12.13,18.12,19.2\H,12.19,18.69,19.97\H,12.71,18.53,18.56
 \O,23.88,25.02,24.6\H,24.48,24.73,23.91\H,24.35,25.72,25.05\O,17.84,24
 .55,25.7\H,17.71,24.32,26.61\H,17.42,25.41,25.61\O,22.75,21.95,12.57\H
 ,22.08,22.52,12.19\H,23.01,22.39,13.38\O,24.03,26.79,16.81\H,23.61,26.
 27,17.49\H,23.32,27.08,16.25\O,27.97,18.24,18.46\H,28.42,18.47,19.28\H
 ,27.4,18.98,18.28\O,26.13,16.58,16.91\H,26.68,15.99,16.4\H,26.72,16.95
 ,17.57\O,16.56,17.02,13.06\H,16.76,16.64,13.91\H,16.57,17.97,13.22\O,1
 4.7,21.3,13.67\H,15.11,20.52,14.04\H,15.43,21.8,13.31\O,18.49,25.72,14
 .66\H,18.8,26.15,15.46\H,17.82,26.3,14.31\O,19.85,13.,24.52\H,19.31,13
 .21,23.75\H,20.48,13.71,24.57\O,25.96,24.32,16.81\H,25.51,24.95,17.37\
 H,26.71,24.8,16.46\O,16.31,21.96,27.21\H,16.53,22.61,27.87\H,17.03,21.
 33,27.24\O,21.87,16.32,26.79\H,22.69,15.9,27.05\H,21.29,16.2,27.54\O,1
 5.04,25.72,23.58\H,14.63,24.87,23.4\H,14.3,26.32,23.67\O,22.89,19.33,2
 8.14\H,23.37,19.44,27.32\H,22.32,20.1,28.18\O,22.87,13.56,14.28\H,22.5
 7,14.24,14.88\H,22.93,14.01,13.43\O,19.23,23.74,12.74\H,19.89,24.02,12
 .11\H,19.1,24.51,13.3\O,18.88,19.18,28.42\H,19.68,19.62,28.12\H,19.14,
 18.74,29.23\O,22.8,11.54,19.02\H,23.09,12.45,19.07\H,22.1,11.48,19.68\
 O,26.74,23.49,24.74\H,26.33,23.55,23.87\H,26.36,22.7,25.12\O,16.86,17.
 38,27.67\H,17.4,18.17,27.61\H,16.78,17.22,28.61\O,14.24,18.88,26.33\H,
 13.78,18.91,27.18\H,15.12,18.59,26.55\O,13.19,25.76,19.89\H,12.63,25.6
 5,19.13\H,14.06,25.92,19.53\O,29.13,20.84,21.93\H,29.46,21.38,22.65\H,
 28.18,20.89,22.03\O,25.21,26.58,21.18\H,25.67,27.23,21.71\H,25.79,26.4
 2,20.44\O,20.99,11.35,16.66\H,21.63,11.31,17.37\H,20.5,12.16,16.81\O,2
 7.62,18.19,24.02\H,27.89,17.57,23.34\H,26.88,17.77,24.45\O,15.35,15.81
 ,25.85\H,15.98,16.19,26.46\H,14.5,16.04,26.22\O,13.75,15.08,16.03\H,12
 .88,14.95,15.66\H,13.59,15.26,16.96\O,16.55,22.42,12.16\H,16.52,21.95,
 11.33\H,17.47,22.65,12.27\O,25.41,12.94,20.93\H,25.84,12.46,20.22\H,24
 .48,12.74,20.83\O,20.58,11.46,20.66\H,19.81,11.19,20.17\H,20.45,11.1,2
 1.53\O,18.93,17.64,11.1\H,18.04,17.61,11.46\H,19.49,17.39,11.83\O,14.5
 2,12.44,20.63\H,14.77,11.75,21.24\H,15.32,12.64,20.14\O,12.42,14.55,21
 .53\H,12.98,13.79,21.66\H,12.91,15.28,21.91\O,18.62,13.65,14.08\H,19.,
 13.9,13.24\H,18.89,12.73,14.2\O,27.9,14.57,18.65\H,28.72,15.03,18.85\H
 ,27.24,15.03,19.17\O,15.76,13.39,15.66\H,15.,13.94,15.86\H,15.82,13.39
 ,14.7\O,20.4,25.39,27.79\H,21.06,24.83,27.38\H,20.27,26.1,27.16\O,22.2
 4,27.82,15.21\H,21.66,28.53,15.48\H,21.65,27.12,14.94\O,13.16,18.36,14
 .51\H,13.42,18.1,13.63\H,12.21,18.22,14.52\O,16.43,19.17,10.94\H,16.45
 ,19.83,10.25\H,16.62,19.66,11.74\O,28.43,24.61,21.72\H,27.83,23.92,22.
 04\H,29.22,24.14,21.47\O,15.55,24.68,13.49\H,16.05,24.04,13.\H,14.63,2
 4.47,13.3\O,15.98,12.77,23.82\H,15.99,13.35,24.57\H,15.64,11.94,24.16\
 O,24.34,12.22,16.15\H,23.74,12.42,16.86\H,23.93,12.61,15.38\O,19.85,27
 .37,25.79\H,19.67,28.09,26.4\H,18.99,27.08,25.5\O,11.35,22.47,23.55\H,
 12.02,23.,23.11\H,11.05,23.02,24.28\O,25.05,15.77,13.02\H,25.44,15.76,
 13.89\H,24.66,16.65,12.94\O,16.94,27.02,25.33\H,16.26,26.87,24.67\H,16
 .83,27.94,25.57\O,28.5,16.23,22.43\H,28.91,15.49,22.88\H,27.91,15.84,2
 1.8\O,10.71,23.66,20.65\H,11.14,24.06,21.4\H,11.35,23.05,20.29\O,12.75
 ,13.36,18.58\H,12.92,14.29,18.7\H,13.21,12.93,19.31\O,21.71,29.79,21.7
 3\H,21.65,30.38,22.48\H,21.66,28.91,22.11\\Version=ES64L-G09RevE.01\HF
 =-9773.5192143\RMSD=1.744e-09\RMSF=1.052e-02\Dipole=-3.4722378,19.0735
 113,10.4632151\Quadrupole=-1089.8011184,900.7803175,189.020801,-832.09
 15974,-1232.2165198,-434.1184665\PG=C01 [X(Br1H256O128)]\\@


 The most important thing in communication is to hear what isn't being said.
 -- Peter F. Drucker
 Job cpu time:       7 days  1 hours  4 minutes  2.1 seconds.
 File lengths (MBytes):  RWF=   7285 Int=      0 D2E=      0 Chk=   2411 Scr=      1
 Normal termination of Gaussian 09 at Sat May  5 01:34:36 2018.
