 Entering Gaussian System, Link 0=/cm/shared/gaussian/g09.e01/intel64-sandybridge/g09/g09
 Initial command:
 /cm/shared/gaussian/g09.e01/intel64-sandybridge/g09/l1.exe "/local/scratch/m.peluso/128_wat/Gau-3984.inp" -scrdir="/local/scratch/m.peluso/128_wat/"
 Entering Link 1 = /cm/shared/gaussian/g09.e01/intel64-sandybridge/g09/l1.exe PID=      3985.
  
 Copyright (c) 1988,1990,1992,1993,1995,1998,2003,2009,2015,
            Gaussian, Inc.  All Rights Reserved.
  
 This is part of the Gaussian(R) 09 program.  It is based on
 the Gaussian(R) 03 system (copyright 2003, Gaussian, Inc.),
 the Gaussian(R) 98 system (copyright 1998, Gaussian, Inc.),
 the Gaussian(R) 94 system (copyright 1995, Gaussian, Inc.),
 the Gaussian 92(TM) system (copyright 1992, Gaussian, Inc.),
 the Gaussian 90(TM) system (copyright 1990, Gaussian, Inc.),
 the Gaussian 88(TM) system (copyright 1988, Gaussian, Inc.),
 the Gaussian 86(TM) system (copyright 1986, Carnegie Mellon
 University), and the Gaussian 82(TM) system (copyright 1983,
 Carnegie Mellon University). Gaussian is a federally registered
 trademark of Gaussian, Inc.
  
 This software contains proprietary and confidential information,
 including trade secrets, belonging to Gaussian, Inc.
  
 This software is provided under written license and may be
 used, copied, transmitted, or stored only in accord with that
 written license.
  
 The following legend is applicable only to US Government
 contracts under FAR:
  
                    RESTRICTED RIGHTS LEGEND
  
 Use, reproduction and disclosure by the US Government is
 subject to restrictions as set forth in subparagraphs (a)
 and (c) of the Commercial Computer Software - Restricted
 Rights clause in FAR 52.227-19.
  
 Gaussian, Inc.
 340 Quinnipiac St., Bldg. 40, Wallingford CT 06492
  
  
 ---------------------------------------------------------------
 Warning -- This program may not be used in any manner that
 competes with the business of Gaussian, Inc. or will provide
 assistance to any competitor of Gaussian, Inc.  The licensee
 of this program is prohibited from giving any competitor of
 Gaussian, Inc. access to this program.  By using this program,
 the user acknowledges that Gaussian, Inc. is engaged in the
 business of creating and licensing software in the field of
 computational chemistry and represents and warrants to the
 licensee that it is not a competitor of Gaussian, Inc. and that
 it will not use this program in any manner prohibited above.
 ---------------------------------------------------------------
  

 Cite this work as:
 Gaussian 09, Revision E.01,
 M. J. Frisch, G. W. Trucks, H. B. Schlegel, G. E. Scuseria, 
 M. A. Robb, J. R. Cheeseman, G. Scalmani, V. Barone, B. Mennucci, 
 G. A. Petersson, H. Nakatsuji, M. Caricato, X. Li, H. P. Hratchian, 
 A. F. Izmaylov, J. Bloino, G. Zheng, J. L. Sonnenberg, M. Hada, 
 M. Ehara, K. Toyota, R. Fukuda, J. Hasegawa, M. Ishida, T. Nakajima, 
 Y. Honda, O. Kitao, H. Nakai, T. Vreven, J. A. Montgomery, Jr., 
 J. E. Peralta, F. Ogliaro, M. Bearpark, J. J. Heyd, E. Brothers, 
 K. N. Kudin, V. N. Staroverov, T. Keith, R. Kobayashi, J. Normand, 
 K. Raghavachari, A. Rendell, J. C. Burant, S. S. Iyengar, J. Tomasi, 
 M. Cossi, N. Rega, J. M. Millam, M. Klene, J. E. Knox, J. B. Cross, 
 V. Bakken, C. Adamo, J. Jaramillo, R. Gomperts, R. E. Stratmann, 
 O. Yazyev, A. J. Austin, R. Cammi, C. Pomelli, J. W. Ochterski, 
 R. L. Martin, K. Morokuma, V. G. Zakrzewski, G. A. Voth, 
 P. Salvador, J. J. Dannenberg, S. Dapprich, A. D. Daniels, 
 O. Farkas, J. B. Foresman, J. V. Ortiz, J. Cioslowski, 
 and D. J. Fox, Gaussian, Inc., Wallingford CT, 2013.
 
 ******************************************
 Gaussian 09:  ES64L-G09RevE.01 30-Nov-2015
                 5-May-2018 
 ******************************************
 %Mem=110GB
 %NProcShared=64
 Will use up to   64 processors via shared memory.
 %chk=snap23.chk
 ----------------------------------------------
 #p PBE1PBE/cc-pvDZ force Counterpoise=2 noSymm
 ----------------------------------------------
 1/10=7,30=1,38=1,62=2/1,3;
 2/12=2,15=1,17=6,18=5,40=1/2;
 1/10=7,30=1,38=1,53=2,62=2,63=101/22;
 3/5=16,11=2,16=1,25=1,30=1,71=1,74=-13/1,2,3;
 4//1;
 5/5=2,38=5/2;
 6/7=2,8=2,9=2,10=2,28=1/1;
 7/7=1,29=1,30=1,33=-1/1,2,3,16;
 1/10=7,30=1,53=2,62=2,63=101/22;
 3/5=7,6=11,11=2,16=1,25=1,30=1,71=1,74=-13,82=7/1,2,3;
 4//1;
 5/5=2,38=5/2;
 6/7=2,8=2,9=2,10=2,28=1/1;
 7/7=1,29=1,30=1,33=-1/1,2,3,16;
 1/10=7,30=1,53=2,62=2,63=101/22(-5);
 7/9=1,29=1,44=-1/16;
 1/10=7,30=1,62=2/3;
 99//99;
 Leave Link    1 at Sat May  5 13:22:42 2018, MaxMem= 14763950080 cpu:         7.7
 (Enter /cm/shared/gaussian/g09.e01/intel64-sandybridge/g09/l101.exe)
 ---------------------------------------
 forces on chloride comput - NWATER: 128
 ---------------------------------------
 Symbolic Z-matrix:
 Charge = -1 Multiplicity = 1 in supermolecule
 Charge = -1 Multiplicity = 1 in fragment      1.
 Charge =  0 Multiplicity = 1 in fragment      2.
 Br(Fragment=1)        20.       20.       20. 
 O(Fragment=2)         17.58     18.95     21.74 
 H(Fragment=2)         18.32     19.28     21.23 
 H(Fragment=2)         17.49     19.57     22.46 
 O(Fragment=2)         23.06     20.72     20.77 
 H(Fragment=2)         22.15     20.69     20.48 
 H(Fragment=2)         23.55     20.31     20.06 
 O(Fragment=2)         17.35     21.66     19.11 
 H(Fragment=2)         18.19     21.37     19.45 
 H(Fragment=2)         17.03     22.28     19.77 
 O(Fragment=2)         19.92     16.87     18.82 
 H(Fragment=2)         20.12     17.75     19.16 
 H(Fragment=2)         18.99     16.76     19. 
 O(Fragment=2)         19.63     19.24     16.6 
 H(Fragment=2)         19.68     19.51     17.52 
 H(Fragment=2)         20.25     18.52     16.53 
 O(Fragment=2)         22.83     17.55     21.33 
 H(Fragment=2)         21.98     17.59     21.77 
 H(Fragment=2)         22.69     17.95     20.48 
 O(Fragment=2)         22.39     22.       23.01 
 H(Fragment=2)         23.17     22.54     22.95 
 H(Fragment=2)         22.35     21.53     22.18 
 O(Fragment=2)         21.06     23.18     16.84 
 H(Fragment=2)         20.65     22.39     17.21 
 H(Fragment=2)         20.82     23.15     15.91 
 O(Fragment=2)         19.23     17.75     23.86 
 H(Fragment=2)         18.79     17.78     23.01 
 H(Fragment=2)         19.04     18.6      24.26 
 O(Fragment=2)         14.83     20.51     19.07 
 H(Fragment=2)         15.78     20.36     19.09 
 H(Fragment=2)         14.72     21.38     19.44 
 O(Fragment=2)         19.4      21.58     14.97 
 H(Fragment=2)         19.3      20.94     15.67 
 H(Fragment=2)         19.4      21.06     14.17 
 O(Fragment=2)         16.77     16.29     21.38 
 H(Fragment=2)         16.96     16.       20.49 
 H(Fragment=2)         16.7      17.24     21.31 
 O(Fragment=2)         23.33     17.35     18.21 
 H(Fragment=2)         23.99     16.73     17.9 
 H(Fragment=2)         23.83     18.04     18.64 
 O(Fragment=2)         17.1      23.67     17.22 
 H(Fragment=2)         16.17     23.82     17.36 
 H(Fragment=2)         17.31     22.93     17.79 
 O(Fragment=2)         20.9      20.27     25.08 
 H(Fragment=2)         20.96     20.91     24.37 
 H(Fragment=2)         21.12     19.44     24.68 
 O(Fragment=2)         24.61     19.86     18.88 
 H(Fragment=2)         25.52     20.14     18.92 
 H(Fragment=2)         24.2      20.47     18.27 
 O(Fragment=2)         21.11     25.01     18.98 
 H(Fragment=2)         21.62     25.58     18.41 
 H(Fragment=2)         21.01     24.2      18.48 
 O(Fragment=2)         24.91     19.54     22.39 
 H(Fragment=2)         24.16     20.       22.01 
 H(Fragment=2)         24.52     18.94     23.03 
 O(Fragment=2)         21.58     14.74     19.93 
 H(Fragment=2)         21.08     15.46     19.55 
 H(Fragment=2)         22.43     14.76     19.49 
 O(Fragment=2)         18.12     22.25     24.22 
 H(Fragment=2)         17.21     22.52     24.26 
 H(Fragment=2)         18.5      22.8      23.53 
 O(Fragment=2)         23.5      21.87     16.99 
 H(Fragment=2)         22.64     22.11     16.62 
 H(Fragment=2)         24.11     22.49     16.6 
 O(Fragment=2)         19.94     15.29     16.61 
 H(Fragment=2)         19.9      14.44     17.04 
 H(Fragment=2)         20.28     15.88     17.28 
 O(Fragment=2)         16.69     18.7      15.51 
 H(Fragment=2)         16.82     18.51     14.58 
 H(Fragment=2)         17.58     18.69     15.87 
 O(Fragment=2)         22.87     18.68     15.69 
 H(Fragment=2)         23.07     18.22     16.5 
 H(Fragment=2)         22.03     18.33     15.41 
 O(Fragment=2)         16.13     23.34     21.1 
 H(Fragment=2)         15.62     22.69     21.59 
 H(Fragment=2)         16.42     23.97     21.76 
 O(Fragment=2)         19.89     25.16     21.31 
 H(Fragment=2)         20.15     25.32     20.41 
 H(Fragment=2)         20.7      25.19     21.81 
 O(Fragment=2)         25.29     23.33     20.13 
 H(Fragment=2)         24.49     22.93     19.78 
 H(Fragment=2)         25.28     24.22     19.79 
 O(Fragment=2)         17.17     15.65     18.58 
 H(Fragment=2)         16.77     16.03     17.8 
 H(Fragment=2)         17.42     14.76     18.31 
 O(Fragment=2)         24.56     15.42     21.35 
 H(Fragment=2)         23.88     16.05     21.1 
 H(Fragment=2)         25.26     15.54     20.71 
 O(Fragment=2)         17.65     19.93     25.63 
 H(Fragment=2)         17.32     20.23     26.48 
 H(Fragment=2)         17.68     20.73     25.1 
 O(Fragment=2)         15.12     21.28     22.65 
 H(Fragment=2)         15.16     21.46     23.59 
 H(Fragment=2)         14.82     20.37     22.59 
 O(Fragment=2)         14.27     18.64     21.29 
 H(Fragment=2)         14.37     19.44     20.78 
 H(Fragment=2)         14.29     17.93     20.65 
 O(Fragment=2)         22.52     20.79     14.15 
 H(Fragment=2)         22.7      20.11     14.8 
 H(Fragment=2)         21.81     20.43     13.62 
 O(Fragment=2)         17.85     14.85     23.54 
 H(Fragment=2)         18.73     14.48     23.47 
 H(Fragment=2)         17.71     15.29     22.7 
 O(Fragment=2)         20.83     17.13     14.85 
 H(Fragment=2)         20.38     16.38     15.23 
 H(Fragment=2)         20.28     17.38     14.1 
 O(Fragment=2)         22.35     25.44     16.61 
 H(Fragment=2)         22.49     25.51     15.67 
 H(Fragment=2)         21.86     24.62     16.72 
 O(Fragment=2)         23.02     25.38     21.27 
 H(Fragment=2)         23.89     25.05     21.03 
 H(Fragment=2)         22.53     25.39     20.45 
 O(Fragment=2)         20.25     23.92     25.29 
 H(Fragment=2)         19.51     23.32     25.15 
 H(Fragment=2)         20.96     23.56     24.76 
 O(Fragment=2)         15.71     18.06     25.05 
 H(Fragment=2)         16.       18.09     24.14 
 H(Fragment=2)         16.52     18.       25.55 
 O(Fragment=2)         20.65     15.33     25.09 
 H(Fragment=2)         20.2      16.08     24.7 
 H(Fragment=2)         21.44     15.22     24.57 
 O(Fragment=2)         17.22     25.09     22.73 
 H(Fragment=2)         17.17     25.58     23.55 
 H(Fragment=2)         18.08     25.31     22.37 
 O(Fragment=2)         14.31     19.58     16.48 
 H(Fragment=2)         15.11     19.09     16.28 
 H(Fragment=2)         14.59     20.25     17.11 
 O(Fragment=2)         16.15     25.93     19.71 
 H(Fragment=2)         16.43     25.13     20.15 
 H(Fragment=2)         16.97     26.37     19.47 
 O(Fragment=2)         24.18     17.92     24.46 
 H(Fragment=2)         23.34     18.01     24.91 
 H(Fragment=2)         24.78     18.48     24.95 
 O(Fragment=2)         22.67     14.61     23.35 
 H(Fragment=2)         22.95     15.11     22.59 
 H(Fragment=2)         23.48     14.46     23.85 
 O(Fragment=2)         15.95     16.21     16.34 
 H(Fragment=2)         16.19     17.01     15.87 
 H(Fragment=2)         15.45     15.69     15.71 
 O(Fragment=2)         20.5      13.55     22.34 
 H(Fragment=2)         20.72     13.84     21.45 
 H(Fragment=2)         21.27     13.78     22.86 
 O(Fragment=2)         16.59     23.       14.65 
 H(Fragment=2)         16.55     23.1      15.6 
 H(Fragment=2)         17.37     22.47     14.5 
 O(Fragment=2)         26.7      21.53     21.54 
 H(Fragment=2)         26.23     22.15     20.99 
 H(Fragment=2)         26.02     21.02     21.97 
 O(Fragment=2)         26.09     18.45     16.69 
 H(Fragment=2)         26.64     18.44     15.91 
 H(Fragment=2)         25.33     18.97     16.43 
 O(Fragment=2)         18.29     16.87     26.58 
 H(Fragment=2)         18.4      15.92     26.65 
 H(Fragment=2)         18.7      17.1      25.75 
 O(Fragment=2)         22.61     25.55     23.99 
 H(Fragment=2)         22.85     25.26     23.11 
 H(Fragment=2)         23.28     25.17     24.55 
 O(Fragment=2)         24.84     23.41     23.26 
 H(Fragment=2)         25.52     23.62     22.61 
 H(Fragment=2)         24.95     24.07     23.94 
 O(Fragment=2)         18.22     26.55     16.82 
 H(Fragment=2)         18.55     26.65     17.71 
 H(Fragment=2)         18.05     25.61     16.73 
 O(Fragment=2)         13.08     22.15     20.67 
 H(Fragment=2)         12.51     22.89     20.9 
 H(Fragment=2)         13.69     22.08     21.41 
 O(Fragment=2)         19.91     18.8      27.58 
 H(Fragment=2)         19.63     19.21     26.77 
 H(Fragment=2)         19.2      18.2      27.8 
 O(Fragment=2)         22.28     23.74     14.33 
 H(Fragment=2)         22.92     23.1      14.64 
 H(Fragment=2)         21.69     23.24     13.77 
 O(Fragment=2)         27.26     18.18     22.25 
 H(Fragment=2)         27.39     17.91     21.34 
 H(Fragment=2)         26.42     18.64     22.25 
 O(Fragment=2)         21.69     21.88     27.42 
 H(Fragment=2)         21.38     21.34     26.69 
 H(Fragment=2)         20.92     22.37     27.7 
 O(Fragment=2)         13.86     15.87     19.84 
 H(Fragment=2)         14.64     15.56     19.37 
 H(Fragment=2)         13.33     15.09     19.98 
 O(Fragment=2)         22.13     17.85     26.31 
 H(Fragment=2)         21.43     18.34     26.74 
 H(Fragment=2)         21.94     16.93     26.5 
 O(Fragment=2)         26.94     17.95     19.48 
 H(Fragment=2)         26.59     18.09     18.6 
 H(Fragment=2)         26.97     16.99     19.57 
 O(Fragment=2)         25.36     21.07     14.27 
 H(Fragment=2)         25.93     21.47     14.93 
 H(Fragment=2)         24.49     21.09     14.66 
 O(Fragment=2)         18.59     27.23     19.39 
 H(Fragment=2)         18.62     28.19     19.34 
 H(Fragment=2)         19.09     27.02     20.17 
 O(Fragment=2)         20.19     20.22     12.85 
 H(Fragment=2)         20.34     20.61     11.99 
 H(Fragment=2)         19.83     19.36     12.67 
 O(Fragment=2)         15.46     21.96     25.2 
 H(Fragment=2)         14.79     22.64     25.31 
 H(Fragment=2)         15.55     21.57     26.07 
 O(Fragment=2)         18.85     13.14     18.23 
 H(Fragment=2)         18.4      12.93     19.04 
 H(Fragment=2)         18.95     12.3      17.79 
 O(Fragment=2)         23.29     14.08     17.04 
 H(Fragment=2)         24.04     14.57     17.38 
 H(Fragment=2)         23.38     14.13     16.09 
 O(Fragment=2)         24.65     25.46     18.68 
 H(Fragment=2)         24.82     26.37     18.92 
 H(Fragment=2)         24.26     25.51     17.8 
 O(Fragment=2)         25.92     21.44     25.35 
 H(Fragment=2)         25.35     21.77     24.65 
 H(Fragment=2)         25.32     21.25     26.07 
 O(Fragment=2)         25.46     15.9      17.29 
 H(Fragment=2)         26.03     16.48     16.77 
 H(Fragment=2)         26.04     15.56     17.97 
 O(Fragment=2)         18.13     12.77     20.81 
 H(Fragment=2)         17.42     12.62     21.43 
 H(Fragment=2)         18.93     12.78     21.34 
 O(Fragment=2)         27.29     20.95     18.9 
 H(Fragment=2)         28.17     20.67     18.65 
 H(Fragment=2)         27.4      21.28     19.79 
 O(Fragment=2)         12.61     17.59     18.02 
 H(Fragment=2)         13.23     16.96     18.39 
 H(Fragment=2)         13.16     18.25     17.6 
 O(Fragment=2)         25.09     15.31     23.93 
 H(Fragment=2)         24.98     15.26     22.98 
 H(Fragment=2)         25.11     16.24     24.12 
 O(Fragment=2)         23.91     17.09     13.36 
 H(Fragment=2)         23.68     16.25     13.77 
 H(Fragment=2)         24.02     17.68     14.1 
 O(Fragment=2)         15.3      13.57     22.14 
 H(Fragment=2)         15.66     14.38     22.49 
 H(Fragment=2)         14.84     13.17     22.88 
 O(Fragment=2)         17.98     13.31     15.31 
 H(Fragment=2)         18.56     13.96     15.71 
 H(Fragment=2)         17.55     12.89     16.06 
 O(Fragment=2)         19.27     17.72     12.81 
 H(Fragment=2)         19.5      17.52     11.9 
 H(Fragment=2)         18.57     17.11     13.02 
 O(Fragment=2)         14.53     24.76     17.54 
 H(Fragment=2)         13.76     24.27     17.83 
 H(Fragment=2)         14.8      25.26     18.31 
 O(Fragment=2)         25.15     23.72     15.75 
 H(Fragment=2)         25.54     24.46     16.2 
 H(Fragment=2)         25.78     23.49     15.07 
 O(Fragment=2)         23.8      12.5      20.47 
 H(Fragment=2)         24.74     12.35     20.47 
 H(Fragment=2)         23.67     13.3      20.97 
 O(Fragment=2)         12.61     18.9      23.78 
 H(Fragment=2)         13.2      18.47     24.4 
 H(Fragment=2)         12.96     18.67     22.92 
 O(Fragment=2)         21.59     28.05     21.7 
 H(Fragment=2)         22.02     27.29     22.11 
 H(Fragment=2)         20.75     28.11     22.15 
 O(Fragment=2)         27.53     21.68     16.09 
 H(Fragment=2)         27.96     22.53     16.1 
 H(Fragment=2)         27.07     21.63     16.92 
 O(Fragment=2)         12.19     22.84     17.77 
 H(Fragment=2)         12.66     22.01     17.81 
 H(Fragment=2)         12.07     23.1      18.68 
 O(Fragment=2)         13.46     16.21     24.63 
 H(Fragment=2)         13.33     16.01     25.56 
 H(Fragment=2)         14.31     16.64     24.59 
 O(Fragment=2)         18.22     26.23     25. 
 H(Fragment=2)         17.86     26.96     25.51 
 H(Fragment=2)         18.61     25.65     25.66 
 O(Fragment=2)         14.91     13.35     16.6 
 H(Fragment=2)         14.01     13.12     16.86 
 H(Fragment=2)         15.19     13.99     17.26 
 O(Fragment=2)         16.51     19.19     12.63 
 H(Fragment=2)         15.75     19.78     12.65 
 H(Fragment=2)         17.12     19.61     12.03 
 O(Fragment=2)         26.64     15.15     19.59 
 H(Fragment=2)         27.28     15.29     20.28 
 H(Fragment=2)         26.41     14.22     19.66 
 O(Fragment=2)         13.78     19.4      13.74 
 H(Fragment=2)         13.79     19.11     14.66 
 H(Fragment=2)         13.7      20.35     13.79 
 O(Fragment=2)         24.68     17.99     27.65 
 H(Fragment=2)         25.18     17.28     27.25 
 H(Fragment=2)         24.03     18.23     26.99 
 O(Fragment=2)         19.23     22.65     28.28 
 H(Fragment=2)         18.56     22.96     27.66 
 H(Fragment=2)         18.74     22.36     29.04 
 O(Fragment=2)         22.38     28.23     17.43 
 H(Fragment=2)         22.37     27.44     16.88 
 H(Fragment=2)         22.35     28.95     16.8 
 O(Fragment=2)         12.43     15.11     22.2 
 H(Fragment=2)         13.01     15.87     22.19 
 H(Fragment=2)         12.89     14.46     22.73 
 O(Fragment=2)         13.91     24.21     14.41 
 H(Fragment=2)         13.82     25.01     14.94 
 H(Fragment=2)         14.77     23.86     14.66 
 O(Fragment=2)         10.83     20.08     20.47 
 H(Fragment=2)         11.17     20.97     20.55 
 H(Fragment=2)         11.61     19.52     20.41 
 O(Fragment=2)         13.71     26.39     20.81 
 H(Fragment=2)         14.35     26.31     20.1 
 H(Fragment=2)         13.75     27.32     21.06 
 O(Fragment=2)         24.51     20.9      27.48 
 H(Fragment=2)         23.58     21.09     27.62 
 H(Fragment=2)         24.81     20.52     28.3 
 O(Fragment=2)         19.68     12.68     25.52 
 H(Fragment=2)         19.81     13.62     25.64 
 H(Fragment=2)         20.13     12.28     26.26 
 O(Fragment=2)         19.83     28.07     15.26 
 H(Fragment=2)         19.35     27.4      15.75 
 H(Fragment=2)         19.57     28.9      15.65 
 O(Fragment=2)         23.47     24.09     27.49 
 H(Fragment=2)         22.89     23.34     27.34 
 H(Fragment=2)         23.64     24.07     28.44 
 O(Fragment=2)         16.3      28.37     21.99 
 H(Fragment=2)         15.62     28.28     22.66 
 H(Fragment=2)         16.24     27.56     21.48 
 O(Fragment=2)         21.15     12.51     14.6 
 H(Fragment=2)         21.56     13.33     14.84 
 H(Fragment=2)         20.46     12.76     13.98 
 O(Fragment=2)         26.56     25.13     22.22 
 H(Fragment=2)         26.91     25.37     21.36 
 H(Fragment=2)         27.32     24.78     22.69 
 O(Fragment=2)         27.64     18.89     24.9 
 H(Fragment=2)         27.62     19.01     23.95 
 H(Fragment=2)         26.98     19.51     25.23 
 O(Fragment=2)         21.47     10.85     20.43 
 H(Fragment=2)         22.04     11.61     20.37 
 H(Fragment=2)         21.16     10.84     21.34 
 O(Fragment=2)         29.46     20.41     21.03 
 H(Fragment=2)         30.03     19.83     21.54 
 H(Fragment=2)         28.57     20.14     21.27 
 O(Fragment=2)         22.96     14.46     14.03 
 H(Fragment=2)         22.53     14.61     13.18 
 H(Fragment=2)         23.55     13.73     13.87 
 O(Fragment=2)         17.33     12.24     24.32 
 H(Fragment=2)         16.91     13.09     24.24 
 H(Fragment=2)         18.2      12.42     24.68 
 O(Fragment=2)         16.19     27.6      15.56 
 H(Fragment=2)         16.69     28.08     14.91 
 H(Fragment=2)         16.84     27.03     15.99 
 O(Fragment=2)         21.13     29.19     19.41 
 H(Fragment=2)         21.36     28.89     20.28 
 H(Fragment=2)         21.44     28.49     18.83 
 O(Fragment=2)         16.28     17.98     28.34 
 H(Fragment=2)         16.27     17.44     29.13 
 H(Fragment=2)         16.88     17.54     27.75 
 O(Fragment=2)         11.93     21.6      24.11 
 H(Fragment=2)         12.07     21.92     25. 
 H(Fragment=2)         12.31     20.72     24.11 
 O(Fragment=2)         22.08     18.08     11.16 
 H(Fragment=2)         22.18     17.49     11.9 
 H(Fragment=2)         21.36     17.71     10.64 
 O(Fragment=2)         24.89     24.91     25.47 
 H(Fragment=2)         25.38     25.58     25.94 
 H(Fragment=2)         24.38     24.47     26.15 
 O(Fragment=2)         13.77     19.68     26.52 
 H(Fragment=2)         14.12     18.8      26.61 
 H(Fragment=2)         14.48     20.25     26.84 
 O(Fragment=2)         22.49     27.72     25.4 
 H(Fragment=2)         22.62     27.56     26.34 
 H(Fragment=2)         22.54     26.84     25.01 
 O(Fragment=2)         18.76     28.53     23.07 
 H(Fragment=2)         17.9      28.49     22.66 
 H(Fragment=2)         18.72     27.91     23.79 
 O(Fragment=2)         29.44     19.23     18.52 
 H(Fragment=2)         30.22     18.73     18.75 
 H(Fragment=2)         28.74     18.85     19.06 
 O(Fragment=2)         17.45     15.68     12.68 
 H(Fragment=2)         17.19     16.02     11.82 
 H(Fragment=2)         17.95     14.89     12.48 
 O(Fragment=2)         15.3      11.67     19.99 
 H(Fragment=2)         15.31     12.45     20.55 
 H(Fragment=2)         15.42     10.94     20.59 
 O(Fragment=2)         20.13     26.26     27.32 
 H(Fragment=2)         20.84     26.73     27.75 
 H(Fragment=2)         20.52     25.43     27.04 
 O(Fragment=2)         16.73     23.57     27.5 
 H(Fragment=2)         16.83     24.32     28.08 
 H(Fragment=2)         15.81     23.59     27.23 
 O(Fragment=2)         16.37     24.45     12.15 
 H(Fragment=2)         16.21     23.88     12.9 
 H(Fragment=2)         17.14     24.96     12.39 
 O(Fragment=2)         20.68     10.63     22.94 
 H(Fragment=2)         21.03     10.49     23.82 
 H(Fragment=2)         20.36     11.53     22.96 
 O(Fragment=2)         24.57     21.79     11.83 
 H(Fragment=2)         24.66     20.92     11.43 
 H(Fragment=2)         24.95     21.69     12.7 
 
 NAtoms=    385 NQM=      385 NQMF=       0 NMMI=      0 NMMIF=      0
                NMic=       0 NMicF=      0.
                    Isotopes and Nuclear Properties:
 (Nuclear quadrupole moments (NQMom) in fm**2, nuclear magnetic moments (NMagM)
  in nuclear magnetons)

  Atom         1           2           3           4           5           6           7           8           9          10
 IAtWgt=          79          16           1           1          16           1           1          16           1           1
 AtmWgt=  78.9183361  15.9949146   1.0078250   1.0078250  15.9949146   1.0078250   1.0078250  15.9949146   1.0078250   1.0078250
 NucSpn=           3           0           1           1           0           1           1           0           1           1
 AtZEff=   0.0000000   0.0000000   0.0000000   0.0000000   0.0000000   0.0000000   0.0000000   0.0000000   0.0000000   0.0000000
 NQMom=   31.3000000   0.0000000   0.0000000   0.0000000   0.0000000   0.0000000   0.0000000   0.0000000   0.0000000   0.0000000
 NMagM=    2.1063990   0.0000000   2.7928460   2.7928460   0.0000000   2.7928460   2.7928460   0.0000000   2.7928460   2.7928460
 AtZNuc=  35.0000000   8.0000000   1.0000000   1.0000000   8.0000000   1.0000000   1.0000000   8.0000000   1.0000000   1.0000000

  Atom        11          12          13          14          15          16          17          18          19          20
 IAtWgt=          16           1           1          16           1           1          16           1           1          16
 AtmWgt=  15.9949146   1.0078250   1.0078250  15.9949146   1.0078250   1.0078250  15.9949146   1.0078250   1.0078250  15.9949146
 NucSpn=           0           1           1           0           1           1           0           1           1           0
 AtZEff=   0.0000000   0.0000000   0.0000000   0.0000000   0.0000000   0.0000000   0.0000000   0.0000000   0.0000000   0.0000000
 NQMom=    0.0000000   0.0000000   0.0000000   0.0000000   0.0000000   0.0000000   0.0000000   0.0000000   0.0000000   0.0000000
 NMagM=    0.0000000   2.7928460   2.7928460   0.0000000   2.7928460   2.7928460   0.0000000   2.7928460   2.7928460   0.0000000
 AtZNuc=   8.0000000   1.0000000   1.0000000   8.0000000   1.0000000   1.0000000   8.0000000   1.0000000   1.0000000   8.0000000

  Atom        21          22          23          24          25          26          27          28          29          30
 IAtWgt=           1           1          16           1           1          16           1           1          16           1
 AtmWgt=   1.0078250   1.0078250  15.9949146   1.0078250   1.0078250  15.9949146   1.0078250   1.0078250  15.9949146   1.0078250
 NucSpn=           1           1           0           1           1           0           1           1           0           1
 AtZEff=   0.0000000   0.0000000   0.0000000   0.0000000   0.0000000   0.0000000   0.0000000   0.0000000   0.0000000   0.0000000
 NQMom=    0.0000000   0.0000000   0.0000000   0.0000000   0.0000000   0.0000000   0.0000000   0.0000000   0.0000000   0.0000000
 NMagM=    2.7928460   2.7928460   0.0000000   2.7928460   2.7928460   0.0000000   2.7928460   2.7928460   0.0000000   2.7928460
 AtZNuc=   1.0000000   1.0000000   8.0000000   1.0000000   1.0000000   8.0000000   1.0000000   1.0000000   8.0000000   1.0000000

  Atom        31          32          33          34          35          36          37          38          39          40
 IAtWgt=           1          16           1           1          16           1           1          16           1           1
 AtmWgt=   1.0078250  15.9949146   1.0078250   1.0078250  15.9949146   1.0078250   1.0078250  15.9949146   1.0078250   1.0078250
 NucSpn=           1           0           1           1           0           1           1           0           1           1
 AtZEff=   0.0000000   0.0000000   0.0000000   0.0000000   0.0000000   0.0000000   0.0000000   0.0000000   0.0000000   0.0000000
 NQMom=    0.0000000   0.0000000   0.0000000   0.0000000   0.0000000   0.0000000   0.0000000   0.0000000   0.0000000   0.0000000
 NMagM=    2.7928460   0.0000000   2.7928460   2.7928460   0.0000000   2.7928460   2.7928460   0.0000000   2.7928460   2.7928460
 AtZNuc=   1.0000000   8.0000000   1.0000000   1.0000000   8.0000000   1.0000000   1.0000000   8.0000000   1.0000000   1.0000000

  Atom        41          42          43          44          45          46          47          48          49          50
 IAtWgt=          16           1           1          16           1           1          16           1           1          16
 AtmWgt=  15.9949146   1.0078250   1.0078250  15.9949146   1.0078250   1.0078250  15.9949146   1.0078250   1.0078250  15.9949146
 NucSpn=           0           1           1           0           1           1           0           1           1           0
 AtZEff=   0.0000000   0.0000000   0.0000000   0.0000000   0.0000000   0.0000000   0.0000000   0.0000000   0.0000000   0.0000000
 NQMom=    0.0000000   0.0000000   0.0000000   0.0000000   0.0000000   0.0000000   0.0000000   0.0000000   0.0000000   0.0000000
 NMagM=    0.0000000   2.7928460   2.7928460   0.0000000   2.7928460   2.7928460   0.0000000   2.7928460   2.7928460   0.0000000
 AtZNuc=   8.0000000   1.0000000   1.0000000   8.0000000   1.0000000   1.0000000   8.0000000   1.0000000   1.0000000   8.0000000

  Atom        51          52          53          54          55          56          57          58          59          60
 IAtWgt=           1           1          16           1           1          16           1           1          16           1
 AtmWgt=   1.0078250   1.0078250  15.9949146   1.0078250   1.0078250  15.9949146   1.0078250   1.0078250  15.9949146   1.0078250
 NucSpn=           1           1           0           1           1           0           1           1           0           1
 AtZEff=   0.0000000   0.0000000   0.0000000   0.0000000   0.0000000   0.0000000   0.0000000   0.0000000   0.0000000   0.0000000
 NQMom=    0.0000000   0.0000000   0.0000000   0.0000000   0.0000000   0.0000000   0.0000000   0.0000000   0.0000000   0.0000000
 NMagM=    2.7928460   2.7928460   0.0000000   2.7928460   2.7928460   0.0000000   2.7928460   2.7928460   0.0000000   2.7928460
 AtZNuc=   1.0000000   1.0000000   8.0000000   1.0000000   1.0000000   8.0000000   1.0000000   1.0000000   8.0000000   1.0000000

  Atom        61          62          63          64          65          66          67          68          69          70
 IAtWgt=           1          16           1           1          16           1           1          16           1           1
 AtmWgt=   1.0078250  15.9949146   1.0078250   1.0078250  15.9949146   1.0078250   1.0078250  15.9949146   1.0078250   1.0078250
 NucSpn=           1           0           1           1           0           1           1           0           1           1
 AtZEff=   0.0000000   0.0000000   0.0000000   0.0000000   0.0000000   0.0000000   0.0000000   0.0000000   0.0000000   0.0000000
 NQMom=    0.0000000   0.0000000   0.0000000   0.0000000   0.0000000   0.0000000   0.0000000   0.0000000   0.0000000   0.0000000
 NMagM=    2.7928460   0.0000000   2.7928460   2.7928460   0.0000000   2.7928460   2.7928460   0.0000000   2.7928460   2.7928460
 AtZNuc=   1.0000000   8.0000000   1.0000000   1.0000000   8.0000000   1.0000000   1.0000000   8.0000000   1.0000000   1.0000000

  Atom        71          72          73          74          75          76          77          78          79          80
 IAtWgt=          16           1           1          16           1           1          16           1           1          16
 AtmWgt=  15.9949146   1.0078250   1.0078250  15.9949146   1.0078250   1.0078250  15.9949146   1.0078250   1.0078250  15.9949146
 NucSpn=           0           1           1           0           1           1           0           1           1           0
 AtZEff=   0.0000000   0.0000000   0.0000000   0.0000000   0.0000000   0.0000000   0.0000000   0.0000000   0.0000000   0.0000000
 NQMom=    0.0000000   0.0000000   0.0000000   0.0000000   0.0000000   0.0000000   0.0000000   0.0000000   0.0000000   0.0000000
 NMagM=    0.0000000   2.7928460   2.7928460   0.0000000   2.7928460   2.7928460   0.0000000   2.7928460   2.7928460   0.0000000
 AtZNuc=   8.0000000   1.0000000   1.0000000   8.0000000   1.0000000   1.0000000   8.0000000   1.0000000   1.0000000   8.0000000

  Atom        81          82          83          84          85          86          87          88          89          90
 IAtWgt=           1           1          16           1           1          16           1           1          16           1
 AtmWgt=   1.0078250   1.0078250  15.9949146   1.0078250   1.0078250  15.9949146   1.0078250   1.0078250  15.9949146   1.0078250
 NucSpn=           1           1           0           1           1           0           1           1           0           1
 AtZEff=   0.0000000   0.0000000   0.0000000   0.0000000   0.0000000   0.0000000   0.0000000   0.0000000   0.0000000   0.0000000
 NQMom=    0.0000000   0.0000000   0.0000000   0.0000000   0.0000000   0.0000000   0.0000000   0.0000000   0.0000000   0.0000000
 NMagM=    2.7928460   2.7928460   0.0000000   2.7928460   2.7928460   0.0000000   2.7928460   2.7928460   0.0000000   2.7928460
 AtZNuc=   1.0000000   1.0000000   8.0000000   1.0000000   1.0000000   8.0000000   1.0000000   1.0000000   8.0000000   1.0000000

  Atom        91          92          93          94          95          96          97          98          99         100
 IAtWgt=           1          16           1           1          16           1           1          16           1           1
 AtmWgt=   1.0078250  15.9949146   1.0078250   1.0078250  15.9949146   1.0078250   1.0078250  15.9949146   1.0078250   1.0078250
 NucSpn=           1           0           1           1           0           1           1           0           1           1
 AtZEff=   0.0000000   0.0000000   0.0000000   0.0000000   0.0000000   0.0000000   0.0000000   0.0000000   0.0000000   0.0000000
 NQMom=    0.0000000   0.0000000   0.0000000   0.0000000   0.0000000   0.0000000   0.0000000   0.0000000   0.0000000   0.0000000
 NMagM=    2.7928460   0.0000000   2.7928460   2.7928460   0.0000000   2.7928460   2.7928460   0.0000000   2.7928460   2.7928460
 AtZNuc=   1.0000000   8.0000000   1.0000000   1.0000000   8.0000000   1.0000000   1.0000000   8.0000000   1.0000000   1.0000000

  Atom       101         102         103         104         105         106         107         108         109         110
 IAtWgt=          16           1           1          16           1           1          16           1           1          16
 AtmWgt=  15.9949146   1.0078250   1.0078250  15.9949146   1.0078250   1.0078250  15.9949146   1.0078250   1.0078250  15.9949146
 NucSpn=           0           1           1           0           1           1           0           1           1           0
 AtZEff=   0.0000000   0.0000000   0.0000000   0.0000000   0.0000000   0.0000000   0.0000000   0.0000000   0.0000000   0.0000000
 NQMom=    0.0000000   0.0000000   0.0000000   0.0000000   0.0000000   0.0000000   0.0000000   0.0000000   0.0000000   0.0000000
 NMagM=    0.0000000   2.7928460   2.7928460   0.0000000   2.7928460   2.7928460   0.0000000   2.7928460   2.7928460   0.0000000
 AtZNuc=   8.0000000   1.0000000   1.0000000   8.0000000   1.0000000   1.0000000   8.0000000   1.0000000   1.0000000   8.0000000

  Atom       111         112         113         114         115         116         117         118         119         120
 IAtWgt=           1           1          16           1           1          16           1           1          16           1
 AtmWgt=   1.0078250   1.0078250  15.9949146   1.0078250   1.0078250  15.9949146   1.0078250   1.0078250  15.9949146   1.0078250
 NucSpn=           1           1           0           1           1           0           1           1           0           1
 AtZEff=   0.0000000   0.0000000   0.0000000   0.0000000   0.0000000   0.0000000   0.0000000   0.0000000   0.0000000   0.0000000
 NQMom=    0.0000000   0.0000000   0.0000000   0.0000000   0.0000000   0.0000000   0.0000000   0.0000000   0.0000000   0.0000000
 NMagM=    2.7928460   2.7928460   0.0000000   2.7928460   2.7928460   0.0000000   2.7928460   2.7928460   0.0000000   2.7928460
 AtZNuc=   1.0000000   1.0000000   8.0000000   1.0000000   1.0000000   8.0000000   1.0000000   1.0000000   8.0000000   1.0000000

  Atom       121         122         123         124         125         126         127         128         129         130
 IAtWgt=           1          16           1           1          16           1           1          16           1           1
 AtmWgt=   1.0078250  15.9949146   1.0078250   1.0078250  15.9949146   1.0078250   1.0078250  15.9949146   1.0078250   1.0078250
 NucSpn=           1           0           1           1           0           1           1           0           1           1
 AtZEff=   0.0000000   0.0000000   0.0000000   0.0000000   0.0000000   0.0000000   0.0000000   0.0000000   0.0000000   0.0000000
 NQMom=    0.0000000   0.0000000   0.0000000   0.0000000   0.0000000   0.0000000   0.0000000   0.0000000   0.0000000   0.0000000
 NMagM=    2.7928460   0.0000000   2.7928460   2.7928460   0.0000000   2.7928460   2.7928460   0.0000000   2.7928460   2.7928460
 AtZNuc=   1.0000000   8.0000000   1.0000000   1.0000000   8.0000000   1.0000000   1.0000000   8.0000000   1.0000000   1.0000000

  Atom       131         132         133         134         135         136         137         138         139         140
 IAtWgt=          16           1           1          16           1           1          16           1           1          16
 AtmWgt=  15.9949146   1.0078250   1.0078250  15.9949146   1.0078250   1.0078250  15.9949146   1.0078250   1.0078250  15.9949146
 NucSpn=           0           1           1           0           1           1           0           1           1           0
 AtZEff=   0.0000000   0.0000000   0.0000000   0.0000000   0.0000000   0.0000000   0.0000000   0.0000000   0.0000000   0.0000000
 NQMom=    0.0000000   0.0000000   0.0000000   0.0000000   0.0000000   0.0000000   0.0000000   0.0000000   0.0000000   0.0000000
 NMagM=    0.0000000   2.7928460   2.7928460   0.0000000   2.7928460   2.7928460   0.0000000   2.7928460   2.7928460   0.0000000
 AtZNuc=   8.0000000   1.0000000   1.0000000   8.0000000   1.0000000   1.0000000   8.0000000   1.0000000   1.0000000   8.0000000

  Atom       141         142         143         144         145         146         147         148         149         150
 IAtWgt=           1           1          16           1           1          16           1           1          16           1
 AtmWgt=   1.0078250   1.0078250  15.9949146   1.0078250   1.0078250  15.9949146   1.0078250   1.0078250  15.9949146   1.0078250
 NucSpn=           1           1           0           1           1           0           1           1           0           1
 AtZEff=   0.0000000   0.0000000   0.0000000   0.0000000   0.0000000   0.0000000   0.0000000   0.0000000   0.0000000   0.0000000
 NQMom=    0.0000000   0.0000000   0.0000000   0.0000000   0.0000000   0.0000000   0.0000000   0.0000000   0.0000000   0.0000000
 NMagM=    2.7928460   2.7928460   0.0000000   2.7928460   2.7928460   0.0000000   2.7928460   2.7928460   0.0000000   2.7928460
 AtZNuc=   1.0000000   1.0000000   8.0000000   1.0000000   1.0000000   8.0000000   1.0000000   1.0000000   8.0000000   1.0000000

  Atom       151         152         153         154         155         156         157         158         159         160
 IAtWgt=           1          16           1           1          16           1           1          16           1           1
 AtmWgt=   1.0078250  15.9949146   1.0078250   1.0078250  15.9949146   1.0078250   1.0078250  15.9949146   1.0078250   1.0078250
 NucSpn=           1           0           1           1           0           1           1           0           1           1
 AtZEff=   0.0000000   0.0000000   0.0000000   0.0000000   0.0000000   0.0000000   0.0000000   0.0000000   0.0000000   0.0000000
 NQMom=    0.0000000   0.0000000   0.0000000   0.0000000   0.0000000   0.0000000   0.0000000   0.0000000   0.0000000   0.0000000
 NMagM=    2.7928460   0.0000000   2.7928460   2.7928460   0.0000000   2.7928460   2.7928460   0.0000000   2.7928460   2.7928460
 AtZNuc=   1.0000000   8.0000000   1.0000000   1.0000000   8.0000000   1.0000000   1.0000000   8.0000000   1.0000000   1.0000000

  Atom       161         162         163         164         165         166         167         168         169         170
 IAtWgt=          16           1           1          16           1           1          16           1           1          16
 AtmWgt=  15.9949146   1.0078250   1.0078250  15.9949146   1.0078250   1.0078250  15.9949146   1.0078250   1.0078250  15.9949146
 NucSpn=           0           1           1           0           1           1           0           1           1           0
 AtZEff=   0.0000000   0.0000000   0.0000000   0.0000000   0.0000000   0.0000000   0.0000000   0.0000000   0.0000000   0.0000000
 NQMom=    0.0000000   0.0000000   0.0000000   0.0000000   0.0000000   0.0000000   0.0000000   0.0000000   0.0000000   0.0000000
 NMagM=    0.0000000   2.7928460   2.7928460   0.0000000   2.7928460   2.7928460   0.0000000   2.7928460   2.7928460   0.0000000
 AtZNuc=   8.0000000   1.0000000   1.0000000   8.0000000   1.0000000   1.0000000   8.0000000   1.0000000   1.0000000   8.0000000

  Atom       171         172         173         174         175         176         177         178         179         180
 IAtWgt=           1           1          16           1           1          16           1           1          16           1
 AtmWgt=   1.0078250   1.0078250  15.9949146   1.0078250   1.0078250  15.9949146   1.0078250   1.0078250  15.9949146   1.0078250
 NucSpn=           1           1           0           1           1           0           1           1           0           1
 AtZEff=   0.0000000   0.0000000   0.0000000   0.0000000   0.0000000   0.0000000   0.0000000   0.0000000   0.0000000   0.0000000
 NQMom=    0.0000000   0.0000000   0.0000000   0.0000000   0.0000000   0.0000000   0.0000000   0.0000000   0.0000000   0.0000000
 NMagM=    2.7928460   2.7928460   0.0000000   2.7928460   2.7928460   0.0000000   2.7928460   2.7928460   0.0000000   2.7928460
 AtZNuc=   1.0000000   1.0000000   8.0000000   1.0000000   1.0000000   8.0000000   1.0000000   1.0000000   8.0000000   1.0000000

  Atom       181         182         183         184         185         186         187         188         189         190
 IAtWgt=           1          16           1           1          16           1           1          16           1           1
 AtmWgt=   1.0078250  15.9949146   1.0078250   1.0078250  15.9949146   1.0078250   1.0078250  15.9949146   1.0078250   1.0078250
 NucSpn=           1           0           1           1           0           1           1           0           1           1
 AtZEff=   0.0000000   0.0000000   0.0000000   0.0000000   0.0000000   0.0000000   0.0000000   0.0000000   0.0000000   0.0000000
 NQMom=    0.0000000   0.0000000   0.0000000   0.0000000   0.0000000   0.0000000   0.0000000   0.0000000   0.0000000   0.0000000
 NMagM=    2.7928460   0.0000000   2.7928460   2.7928460   0.0000000   2.7928460   2.7928460   0.0000000   2.7928460   2.7928460
 AtZNuc=   1.0000000   8.0000000   1.0000000   1.0000000   8.0000000   1.0000000   1.0000000   8.0000000   1.0000000   1.0000000

  Atom       191         192         193         194         195         196         197         198         199         200
 IAtWgt=          16           1           1          16           1           1          16           1           1          16
 AtmWgt=  15.9949146   1.0078250   1.0078250  15.9949146   1.0078250   1.0078250  15.9949146   1.0078250   1.0078250  15.9949146
 NucSpn=           0           1           1           0           1           1           0           1           1           0
 AtZEff=   0.0000000   0.0000000   0.0000000   0.0000000   0.0000000   0.0000000   0.0000000   0.0000000   0.0000000   0.0000000
 NQMom=    0.0000000   0.0000000   0.0000000   0.0000000   0.0000000   0.0000000   0.0000000   0.0000000   0.0000000   0.0000000
 NMagM=    0.0000000   2.7928460   2.7928460   0.0000000   2.7928460   2.7928460   0.0000000   2.7928460   2.7928460   0.0000000
 AtZNuc=   8.0000000   1.0000000   1.0000000   8.0000000   1.0000000   1.0000000   8.0000000   1.0000000   1.0000000   8.0000000

  Atom       201         202         203         204         205         206         207         208         209         210
 IAtWgt=           1           1          16           1           1          16           1           1          16           1
 AtmWgt=   1.0078250   1.0078250  15.9949146   1.0078250   1.0078250  15.9949146   1.0078250   1.0078250  15.9949146   1.0078250
 NucSpn=           1           1           0           1           1           0           1           1           0           1
 AtZEff=   0.0000000   0.0000000   0.0000000   0.0000000   0.0000000   0.0000000   0.0000000   0.0000000   0.0000000   0.0000000
 NQMom=    0.0000000   0.0000000   0.0000000   0.0000000   0.0000000   0.0000000   0.0000000   0.0000000   0.0000000   0.0000000
 NMagM=    2.7928460   2.7928460   0.0000000   2.7928460   2.7928460   0.0000000   2.7928460   2.7928460   0.0000000   2.7928460
 AtZNuc=   1.0000000   1.0000000   8.0000000   1.0000000   1.0000000   8.0000000   1.0000000   1.0000000   8.0000000   1.0000000

  Atom       211         212         213         214         215         216         217         218         219         220
 IAtWgt=           1          16           1           1          16           1           1          16           1           1
 AtmWgt=   1.0078250  15.9949146   1.0078250   1.0078250  15.9949146   1.0078250   1.0078250  15.9949146   1.0078250   1.0078250
 NucSpn=           1           0           1           1           0           1           1           0           1           1
 AtZEff=   0.0000000   0.0000000   0.0000000   0.0000000   0.0000000   0.0000000   0.0000000   0.0000000   0.0000000   0.0000000
 NQMom=    0.0000000   0.0000000   0.0000000   0.0000000   0.0000000   0.0000000   0.0000000   0.0000000   0.0000000   0.0000000
 NMagM=    2.7928460   0.0000000   2.7928460   2.7928460   0.0000000   2.7928460   2.7928460   0.0000000   2.7928460   2.7928460
 AtZNuc=   1.0000000   8.0000000   1.0000000   1.0000000   8.0000000   1.0000000   1.0000000   8.0000000   1.0000000   1.0000000

  Atom       221         222         223         224         225         226         227         228         229         230
 IAtWgt=          16           1           1          16           1           1          16           1           1          16
 AtmWgt=  15.9949146   1.0078250   1.0078250  15.9949146   1.0078250   1.0078250  15.9949146   1.0078250   1.0078250  15.9949146
 NucSpn=           0           1           1           0           1           1           0           1           1           0
 AtZEff=   0.0000000   0.0000000   0.0000000   0.0000000   0.0000000   0.0000000   0.0000000   0.0000000   0.0000000   0.0000000
 NQMom=    0.0000000   0.0000000   0.0000000   0.0000000   0.0000000   0.0000000   0.0000000   0.0000000   0.0000000   0.0000000
 NMagM=    0.0000000   2.7928460   2.7928460   0.0000000   2.7928460   2.7928460   0.0000000   2.7928460   2.7928460   0.0000000
 AtZNuc=   8.0000000   1.0000000   1.0000000   8.0000000   1.0000000   1.0000000   8.0000000   1.0000000   1.0000000   8.0000000

  Atom       231         232         233         234         235         236         237         238         239         240
 IAtWgt=           1           1          16           1           1          16           1           1          16           1
 AtmWgt=   1.0078250   1.0078250  15.9949146   1.0078250   1.0078250  15.9949146   1.0078250   1.0078250  15.9949146   1.0078250
 NucSpn=           1           1           0           1           1           0           1           1           0           1
 AtZEff=   0.0000000   0.0000000   0.0000000   0.0000000   0.0000000   0.0000000   0.0000000   0.0000000   0.0000000   0.0000000
 NQMom=    0.0000000   0.0000000   0.0000000   0.0000000   0.0000000   0.0000000   0.0000000   0.0000000   0.0000000   0.0000000
 NMagM=    2.7928460   2.7928460   0.0000000   2.7928460   2.7928460   0.0000000   2.7928460   2.7928460   0.0000000   2.7928460
 AtZNuc=   1.0000000   1.0000000   8.0000000   1.0000000   1.0000000   8.0000000   1.0000000   1.0000000   8.0000000   1.0000000

  Atom       241         242         243         244         245         246         247         248         249         250
 IAtWgt=           1          16           1           1          16           1           1          16           1           1
 AtmWgt=   1.0078250  15.9949146   1.0078250   1.0078250  15.9949146   1.0078250   1.0078250  15.9949146   1.0078250   1.0078250
 NucSpn=           1           0           1           1           0           1           1           0           1           1
 AtZEff=   0.0000000   0.0000000   0.0000000   0.0000000   0.0000000   0.0000000   0.0000000   0.0000000   0.0000000   0.0000000
 NQMom=    0.0000000   0.0000000   0.0000000   0.0000000   0.0000000   0.0000000   0.0000000   0.0000000   0.0000000   0.0000000
 NMagM=    2.7928460   0.0000000   2.7928460   2.7928460   0.0000000   2.7928460   2.7928460   0.0000000   2.7928460   2.7928460
 AtZNuc=   1.0000000   8.0000000   1.0000000   1.0000000   8.0000000   1.0000000   1.0000000   8.0000000   1.0000000   1.0000000

  Atom       251         252         253         254         255         256         257         258         259         260
 IAtWgt=          16           1           1          16           1           1          16           1           1          16
 AtmWgt=  15.9949146   1.0078250   1.0078250  15.9949146   1.0078250   1.0078250  15.9949146   1.0078250   1.0078250  15.9949146
 NucSpn=           0           1           1           0           1           1           0           1           1           0
 AtZEff=   0.0000000   0.0000000   0.0000000   0.0000000   0.0000000   0.0000000   0.0000000   0.0000000   0.0000000   0.0000000
 NQMom=    0.0000000   0.0000000   0.0000000   0.0000000   0.0000000   0.0000000   0.0000000   0.0000000   0.0000000   0.0000000
 NMagM=    0.0000000   2.7928460   2.7928460   0.0000000   2.7928460   2.7928460   0.0000000   2.7928460   2.7928460   0.0000000
 AtZNuc=   8.0000000   1.0000000   1.0000000   8.0000000   1.0000000   1.0000000   8.0000000   1.0000000   1.0000000   8.0000000

  Atom       261         262         263         264         265         266         267         268         269         270
 IAtWgt=           1           1          16           1           1          16           1           1          16           1
 AtmWgt=   1.0078250   1.0078250  15.9949146   1.0078250   1.0078250  15.9949146   1.0078250   1.0078250  15.9949146   1.0078250
 NucSpn=           1           1           0           1           1           0           1           1           0           1
 AtZEff=   0.0000000   0.0000000   0.0000000   0.0000000   0.0000000   0.0000000   0.0000000   0.0000000   0.0000000   0.0000000
 NQMom=    0.0000000   0.0000000   0.0000000   0.0000000   0.0000000   0.0000000   0.0000000   0.0000000   0.0000000   0.0000000
 NMagM=    2.7928460   2.7928460   0.0000000   2.7928460   2.7928460   0.0000000   2.7928460   2.7928460   0.0000000   2.7928460
 AtZNuc=   1.0000000   1.0000000   8.0000000   1.0000000   1.0000000   8.0000000   1.0000000   1.0000000   8.0000000   1.0000000

  Atom       271         272         273         274         275         276         277         278         279         280
 IAtWgt=           1          16           1           1          16           1           1          16           1           1
 AtmWgt=   1.0078250  15.9949146   1.0078250   1.0078250  15.9949146   1.0078250   1.0078250  15.9949146   1.0078250   1.0078250
 NucSpn=           1           0           1           1           0           1           1           0           1           1
 AtZEff=   0.0000000   0.0000000   0.0000000   0.0000000   0.0000000   0.0000000   0.0000000   0.0000000   0.0000000   0.0000000
 NQMom=    0.0000000   0.0000000   0.0000000   0.0000000   0.0000000   0.0000000   0.0000000   0.0000000   0.0000000   0.0000000
 NMagM=    2.7928460   0.0000000   2.7928460   2.7928460   0.0000000   2.7928460   2.7928460   0.0000000   2.7928460   2.7928460
 AtZNuc=   1.0000000   8.0000000   1.0000000   1.0000000   8.0000000   1.0000000   1.0000000   8.0000000   1.0000000   1.0000000

  Atom       281         282         283         284         285         286         287         288         289         290
 IAtWgt=          16           1           1          16           1           1          16           1           1          16
 AtmWgt=  15.9949146   1.0078250   1.0078250  15.9949146   1.0078250   1.0078250  15.9949146   1.0078250   1.0078250  15.9949146
 NucSpn=           0           1           1           0           1           1           0           1           1           0
 AtZEff=   0.0000000   0.0000000   0.0000000   0.0000000   0.0000000   0.0000000   0.0000000   0.0000000   0.0000000   0.0000000
 NQMom=    0.0000000   0.0000000   0.0000000   0.0000000   0.0000000   0.0000000   0.0000000   0.0000000   0.0000000   0.0000000
 NMagM=    0.0000000   2.7928460   2.7928460   0.0000000   2.7928460   2.7928460   0.0000000   2.7928460   2.7928460   0.0000000
 AtZNuc=   8.0000000   1.0000000   1.0000000   8.0000000   1.0000000   1.0000000   8.0000000   1.0000000   1.0000000   8.0000000

  Atom       291         292         293         294         295         296         297         298         299         300
 IAtWgt=           1           1          16           1           1          16           1           1          16           1
 AtmWgt=   1.0078250   1.0078250  15.9949146   1.0078250   1.0078250  15.9949146   1.0078250   1.0078250  15.9949146   1.0078250
 NucSpn=           1           1           0           1           1           0           1           1           0           1
 AtZEff=   0.0000000   0.0000000   0.0000000   0.0000000   0.0000000   0.0000000   0.0000000   0.0000000   0.0000000   0.0000000
 NQMom=    0.0000000   0.0000000   0.0000000   0.0000000   0.0000000   0.0000000   0.0000000   0.0000000   0.0000000   0.0000000
 NMagM=    2.7928460   2.7928460   0.0000000   2.7928460   2.7928460   0.0000000   2.7928460   2.7928460   0.0000000   2.7928460
 AtZNuc=   1.0000000   1.0000000   8.0000000   1.0000000   1.0000000   8.0000000   1.0000000   1.0000000   8.0000000   1.0000000

  Atom       301         302         303         304         305         306         307         308         309         310
 IAtWgt=           1          16           1           1          16           1           1          16           1           1
 AtmWgt=   1.0078250  15.9949146   1.0078250   1.0078250  15.9949146   1.0078250   1.0078250  15.9949146   1.0078250   1.0078250
 NucSpn=           1           0           1           1           0           1           1           0           1           1
 AtZEff=   0.0000000   0.0000000   0.0000000   0.0000000   0.0000000   0.0000000   0.0000000   0.0000000   0.0000000   0.0000000
 NQMom=    0.0000000   0.0000000   0.0000000   0.0000000   0.0000000   0.0000000   0.0000000   0.0000000   0.0000000   0.0000000
 NMagM=    2.7928460   0.0000000   2.7928460   2.7928460   0.0000000   2.7928460   2.7928460   0.0000000   2.7928460   2.7928460
 AtZNuc=   1.0000000   8.0000000   1.0000000   1.0000000   8.0000000   1.0000000   1.0000000   8.0000000   1.0000000   1.0000000

  Atom       311         312         313         314         315         316         317         318         319         320
 IAtWgt=          16           1           1          16           1           1          16           1           1          16
 AtmWgt=  15.9949146   1.0078250   1.0078250  15.9949146   1.0078250   1.0078250  15.9949146   1.0078250   1.0078250  15.9949146
 NucSpn=           0           1           1           0           1           1           0           1           1           0
 AtZEff=   0.0000000   0.0000000   0.0000000   0.0000000   0.0000000   0.0000000   0.0000000   0.0000000   0.0000000   0.0000000
 NQMom=    0.0000000   0.0000000   0.0000000   0.0000000   0.0000000   0.0000000   0.0000000   0.0000000   0.0000000   0.0000000
 NMagM=    0.0000000   2.7928460   2.7928460   0.0000000   2.7928460   2.7928460   0.0000000   2.7928460   2.7928460   0.0000000
 AtZNuc=   8.0000000   1.0000000   1.0000000   8.0000000   1.0000000   1.0000000   8.0000000   1.0000000   1.0000000   8.0000000

  Atom       321         322         323         324         325         326         327         328         329         330
 IAtWgt=           1           1          16           1           1          16           1           1          16           1
 AtmWgt=   1.0078250   1.0078250  15.9949146   1.0078250   1.0078250  15.9949146   1.0078250   1.0078250  15.9949146   1.0078250
 NucSpn=           1           1           0           1           1           0           1           1           0           1
 AtZEff=   0.0000000   0.0000000   0.0000000   0.0000000   0.0000000   0.0000000   0.0000000   0.0000000   0.0000000   0.0000000
 NQMom=    0.0000000   0.0000000   0.0000000   0.0000000   0.0000000   0.0000000   0.0000000   0.0000000   0.0000000   0.0000000
 NMagM=    2.7928460   2.7928460   0.0000000   2.7928460   2.7928460   0.0000000   2.7928460   2.7928460   0.0000000   2.7928460
 AtZNuc=   1.0000000   1.0000000   8.0000000   1.0000000   1.0000000   8.0000000   1.0000000   1.0000000   8.0000000   1.0000000

  Atom       331         332         333         334         335         336         337         338         339         340
 IAtWgt=           1          16           1           1          16           1           1          16           1           1
 AtmWgt=   1.0078250  15.9949146   1.0078250   1.0078250  15.9949146   1.0078250   1.0078250  15.9949146   1.0078250   1.0078250
 NucSpn=           1           0           1           1           0           1           1           0           1           1
 AtZEff=   0.0000000   0.0000000   0.0000000   0.0000000   0.0000000   0.0000000   0.0000000   0.0000000   0.0000000   0.0000000
 NQMom=    0.0000000   0.0000000   0.0000000   0.0000000   0.0000000   0.0000000   0.0000000   0.0000000   0.0000000   0.0000000
 NMagM=    2.7928460   0.0000000   2.7928460   2.7928460   0.0000000   2.7928460   2.7928460   0.0000000   2.7928460   2.7928460
 AtZNuc=   1.0000000   8.0000000   1.0000000   1.0000000   8.0000000   1.0000000   1.0000000   8.0000000   1.0000000   1.0000000

  Atom       341         342         343         344         345         346         347         348         349         350
 IAtWgt=          16           1           1          16           1           1          16           1           1          16
 AtmWgt=  15.9949146   1.0078250   1.0078250  15.9949146   1.0078250   1.0078250  15.9949146   1.0078250   1.0078250  15.9949146
 NucSpn=           0           1           1           0           1           1           0           1           1           0
 AtZEff=   0.0000000   0.0000000   0.0000000   0.0000000   0.0000000   0.0000000   0.0000000   0.0000000   0.0000000   0.0000000
 NQMom=    0.0000000   0.0000000   0.0000000   0.0000000   0.0000000   0.0000000   0.0000000   0.0000000   0.0000000   0.0000000
 NMagM=    0.0000000   2.7928460   2.7928460   0.0000000   2.7928460   2.7928460   0.0000000   2.7928460   2.7928460   0.0000000
 AtZNuc=   8.0000000   1.0000000   1.0000000   8.0000000   1.0000000   1.0000000   8.0000000   1.0000000   1.0000000   8.0000000

  Atom       351         352         353         354         355         356         357         358         359         360
 IAtWgt=           1           1          16           1           1          16           1           1          16           1
 AtmWgt=   1.0078250   1.0078250  15.9949146   1.0078250   1.0078250  15.9949146   1.0078250   1.0078250  15.9949146   1.0078250
 NucSpn=           1           1           0           1           1           0           1           1           0           1
 AtZEff=   0.0000000   0.0000000   0.0000000   0.0000000   0.0000000   0.0000000   0.0000000   0.0000000   0.0000000   0.0000000
 NQMom=    0.0000000   0.0000000   0.0000000   0.0000000   0.0000000   0.0000000   0.0000000   0.0000000   0.0000000   0.0000000
 NMagM=    2.7928460   2.7928460   0.0000000   2.7928460   2.7928460   0.0000000   2.7928460   2.7928460   0.0000000   2.7928460
 AtZNuc=   1.0000000   1.0000000   8.0000000   1.0000000   1.0000000   8.0000000   1.0000000   1.0000000   8.0000000   1.0000000

  Atom       361         362         363         364         365         366         367         368         369         370
 IAtWgt=           1          16           1           1          16           1           1          16           1           1
 AtmWgt=   1.0078250  15.9949146   1.0078250   1.0078250  15.9949146   1.0078250   1.0078250  15.9949146   1.0078250   1.0078250
 NucSpn=           1           0           1           1           0           1           1           0           1           1
 AtZEff=   0.0000000   0.0000000   0.0000000   0.0000000   0.0000000   0.0000000   0.0000000   0.0000000   0.0000000   0.0000000
 NQMom=    0.0000000   0.0000000   0.0000000   0.0000000   0.0000000   0.0000000   0.0000000   0.0000000   0.0000000   0.0000000
 NMagM=    2.7928460   0.0000000   2.7928460   2.7928460   0.0000000   2.7928460   2.7928460   0.0000000   2.7928460   2.7928460
 AtZNuc=   1.0000000   8.0000000   1.0000000   1.0000000   8.0000000   1.0000000   1.0000000   8.0000000   1.0000000   1.0000000

  Atom       371         372         373         374         375         376         377         378         379         380
 IAtWgt=          16           1           1          16           1           1          16           1           1          16
 AtmWgt=  15.9949146   1.0078250   1.0078250  15.9949146   1.0078250   1.0078250  15.9949146   1.0078250   1.0078250  15.9949146
 NucSpn=           0           1           1           0           1           1           0           1           1           0
 AtZEff=   0.0000000   0.0000000   0.0000000   0.0000000   0.0000000   0.0000000   0.0000000   0.0000000   0.0000000   0.0000000
 NQMom=    0.0000000   0.0000000   0.0000000   0.0000000   0.0000000   0.0000000   0.0000000   0.0000000   0.0000000   0.0000000
 NMagM=    0.0000000   2.7928460   2.7928460   0.0000000   2.7928460   2.7928460   0.0000000   2.7928460   2.7928460   0.0000000
 AtZNuc=   8.0000000   1.0000000   1.0000000   8.0000000   1.0000000   1.0000000   8.0000000   1.0000000   1.0000000   8.0000000

  Atom       381         382         383         384         385
 IAtWgt=           1           1          16           1           1
 AtmWgt=   1.0078250   1.0078250  15.9949146   1.0078250   1.0078250
 NucSpn=           1           1           0           1           1
 AtZEff=   0.0000000   0.0000000   0.0000000   0.0000000   0.0000000
 NQMom=    0.0000000   0.0000000   0.0000000   0.0000000   0.0000000
 NMagM=    2.7928460   2.7928460   0.0000000   2.7928460   2.7928460
 AtZNuc=   1.0000000   1.0000000   8.0000000   1.0000000   1.0000000
 Leave Link  101 at Sat May  5 13:22:43 2018, MaxMem= 14763950080 cpu:        37.4
 (Enter /cm/shared/gaussian/g09.e01/intel64-sandybridge/g09/l103.exe)

 GradGradGradGradGradGradGradGradGradGradGradGradGradGradGradGradGradGrad
 Berny optimization.
 Initialization pass.
 Trust Radius=3.00D-01 FncErr=1.00D-07 GrdErr=1.00D-07
 Number of steps in this run=      2 maximum allowed number of steps=      2.
 GradGradGradGradGradGradGradGradGradGradGradGradGradGradGradGradGradGrad

 Leave Link  103 at Sat May  5 13:22:43 2018, MaxMem= 14763950080 cpu:         6.2
 (Enter /cm/shared/gaussian/g09.e01/intel64-sandybridge/g09/l202.exe)
 Symmetry turned off by external request.
 Stoichiometry    BrH256O128(1-)
 Framework group  C1[X(BrH256O128)]
 Deg. of freedom  1149
 Full point group                 C1      NOp   1
                          Input orientation:                          
 ---------------------------------------------------------------------
 Center     Atomic      Atomic             Coordinates (Angstroms)
 Number     Number       Type             X           Y           Z
 ---------------------------------------------------------------------
      1         35           0       20.000000   20.000000   20.000000
      2          8           0       17.580000   18.950000   21.740000
      3          1           0       18.320000   19.280000   21.230000
      4          1           0       17.490000   19.570000   22.460000
      5          8           0       23.060000   20.720000   20.770000
      6          1           0       22.150000   20.690000   20.480000
      7          1           0       23.550000   20.310000   20.060000
      8          8           0       17.350000   21.660000   19.110000
      9          1           0       18.190000   21.370000   19.450000
     10          1           0       17.030000   22.280000   19.770000
     11          8           0       19.920000   16.870000   18.820000
     12          1           0       20.120000   17.750000   19.160000
     13          1           0       18.990000   16.760000   19.000000
     14          8           0       19.630000   19.240000   16.600000
     15          1           0       19.680000   19.510000   17.520000
     16          1           0       20.250000   18.520000   16.530000
     17          8           0       22.830000   17.550000   21.330000
     18          1           0       21.980000   17.590000   21.770000
     19          1           0       22.690000   17.950000   20.480000
     20          8           0       22.390000   22.000000   23.010000
     21          1           0       23.170000   22.540000   22.950000
     22          1           0       22.350000   21.530000   22.180000
     23          8           0       21.060000   23.180000   16.840000
     24          1           0       20.650000   22.390000   17.210000
     25          1           0       20.820000   23.150000   15.910000
     26          8           0       19.230000   17.750000   23.860000
     27          1           0       18.790000   17.780000   23.010000
     28          1           0       19.040000   18.600000   24.260000
     29          8           0       14.830000   20.510000   19.070000
     30          1           0       15.780000   20.360000   19.090000
     31          1           0       14.720000   21.380000   19.440000
     32          8           0       19.400000   21.580000   14.970000
     33          1           0       19.300000   20.940000   15.670000
     34          1           0       19.400000   21.060000   14.170000
     35          8           0       16.770000   16.290000   21.380000
     36          1           0       16.960000   16.000000   20.490000
     37          1           0       16.700000   17.240000   21.310000
     38          8           0       23.330000   17.350000   18.210000
     39          1           0       23.990000   16.730000   17.900000
     40          1           0       23.830000   18.040000   18.640000
     41          8           0       17.100000   23.670000   17.220000
     42          1           0       16.170000   23.820000   17.360000
     43          1           0       17.310000   22.930000   17.790000
     44          8           0       20.900000   20.270000   25.080000
     45          1           0       20.960000   20.910000   24.370000
     46          1           0       21.120000   19.440000   24.680000
     47          8           0       24.610000   19.860000   18.880000
     48          1           0       25.520000   20.140000   18.920000
     49          1           0       24.200000   20.470000   18.270000
     50          8           0       21.110000   25.010000   18.980000
     51          1           0       21.620000   25.580000   18.410000
     52          1           0       21.010000   24.200000   18.480000
     53          8           0       24.910000   19.540000   22.390000
     54          1           0       24.160000   20.000000   22.010000
     55          1           0       24.520000   18.940000   23.030000
     56          8           0       21.580000   14.740000   19.930000
     57          1           0       21.080000   15.460000   19.550000
     58          1           0       22.430000   14.760000   19.490000
     59          8           0       18.120000   22.250000   24.220000
     60          1           0       17.210000   22.520000   24.260000
     61          1           0       18.500000   22.800000   23.530000
     62          8           0       23.500000   21.870000   16.990000
     63          1           0       22.640000   22.110000   16.620000
     64          1           0       24.110000   22.490000   16.600000
     65          8           0       19.940000   15.290000   16.610000
     66          1           0       19.900000   14.440000   17.040000
     67          1           0       20.280000   15.880000   17.280000
     68          8           0       16.690000   18.700000   15.510000
     69          1           0       16.820000   18.510000   14.580000
     70          1           0       17.580000   18.690000   15.870000
     71          8           0       22.870000   18.680000   15.690000
     72          1           0       23.070000   18.220000   16.500000
     73          1           0       22.030000   18.330000   15.410000
     74          8           0       16.130000   23.340000   21.100000
     75          1           0       15.620000   22.690000   21.590000
     76          1           0       16.420000   23.970000   21.760000
     77          8           0       19.890000   25.160000   21.310000
     78          1           0       20.150000   25.320000   20.410000
     79          1           0       20.700000   25.190000   21.810000
     80          8           0       25.290000   23.330000   20.130000
     81          1           0       24.490000   22.930000   19.780000
     82          1           0       25.280000   24.220000   19.790000
     83          8           0       17.170000   15.650000   18.580000
     84          1           0       16.770000   16.030000   17.800000
     85          1           0       17.420000   14.760000   18.310000
     86          8           0       24.560000   15.420000   21.350000
     87          1           0       23.880000   16.050000   21.100000
     88          1           0       25.260000   15.540000   20.710000
     89          8           0       17.650000   19.930000   25.630000
     90          1           0       17.320000   20.230000   26.480000
     91          1           0       17.680000   20.730000   25.100000
     92          8           0       15.120000   21.280000   22.650000
     93          1           0       15.160000   21.460000   23.590000
     94          1           0       14.820000   20.370000   22.590000
     95          8           0       14.270000   18.640000   21.290000
     96          1           0       14.370000   19.440000   20.780000
     97          1           0       14.290000   17.930000   20.650000
     98          8           0       22.520000   20.790000   14.150000
     99          1           0       22.700000   20.110000   14.800000
    100          1           0       21.810000   20.430000   13.620000
    101          8           0       17.850000   14.850000   23.540000
    102          1           0       18.730000   14.480000   23.470000
    103          1           0       17.710000   15.290000   22.700000
    104          8           0       20.830000   17.130000   14.850000
    105          1           0       20.380000   16.380000   15.230000
    106          1           0       20.280000   17.380000   14.100000
    107          8           0       22.350000   25.440000   16.610000
    108          1           0       22.490000   25.510000   15.670000
    109          1           0       21.860000   24.620000   16.720000
    110          8           0       23.020000   25.380000   21.270000
    111          1           0       23.890000   25.050000   21.030000
    112          1           0       22.530000   25.390000   20.450000
    113          8           0       20.250000   23.920000   25.290000
    114          1           0       19.510000   23.320000   25.150000
    115          1           0       20.960000   23.560000   24.760000
    116          8           0       15.710000   18.060000   25.050000
    117          1           0       16.000000   18.090000   24.140000
    118          1           0       16.520000   18.000000   25.550000
    119          8           0       20.650000   15.330000   25.090000
    120          1           0       20.200000   16.080000   24.700000
    121          1           0       21.440000   15.220000   24.570000
    122          8           0       17.220000   25.090000   22.730000
    123          1           0       17.170000   25.580000   23.550000
    124          1           0       18.080000   25.310000   22.370000
    125          8           0       14.310000   19.580000   16.480000
    126          1           0       15.110000   19.090000   16.280000
    127          1           0       14.590000   20.250000   17.110000
    128          8           0       16.150000   25.930000   19.710000
    129          1           0       16.430000   25.130000   20.150000
    130          1           0       16.970000   26.370000   19.470000
    131          8           0       24.180000   17.920000   24.460000
    132          1           0       23.340000   18.010000   24.910000
    133          1           0       24.780000   18.480000   24.950000
    134          8           0       22.670000   14.610000   23.350000
    135          1           0       22.950000   15.110000   22.590000
    136          1           0       23.480000   14.460000   23.850000
    137          8           0       15.950000   16.210000   16.340000
    138          1           0       16.190000   17.010000   15.870000
    139          1           0       15.450000   15.690000   15.710000
    140          8           0       20.500000   13.550000   22.340000
    141          1           0       20.720000   13.840000   21.450000
    142          1           0       21.270000   13.780000   22.860000
    143          8           0       16.590000   23.000000   14.650000
    144          1           0       16.550000   23.100000   15.600000
    145          1           0       17.370000   22.470000   14.500000
    146          8           0       26.700000   21.530000   21.540000
    147          1           0       26.230000   22.150000   20.990000
    148          1           0       26.020000   21.020000   21.970000
    149          8           0       26.090000   18.450000   16.690000
    150          1           0       26.640000   18.440000   15.910000
    151          1           0       25.330000   18.970000   16.430000
    152          8           0       18.290000   16.870000   26.580000
    153          1           0       18.400000   15.920000   26.650000
    154          1           0       18.700000   17.100000   25.750000
    155          8           0       22.610000   25.550000   23.990000
    156          1           0       22.850000   25.260000   23.110000
    157          1           0       23.280000   25.170000   24.550000
    158          8           0       24.840000   23.410000   23.260000
    159          1           0       25.520000   23.620000   22.610000
    160          1           0       24.950000   24.070000   23.940000
    161          8           0       18.220000   26.550000   16.820000
    162          1           0       18.550000   26.650000   17.710000
    163          1           0       18.050000   25.610000   16.730000
    164          8           0       13.080000   22.150000   20.670000
    165          1           0       12.510000   22.890000   20.900000
    166          1           0       13.690000   22.080000   21.410000
    167          8           0       19.910000   18.800000   27.580000
    168          1           0       19.630000   19.210000   26.770000
    169          1           0       19.200000   18.200000   27.800000
    170          8           0       22.280000   23.740000   14.330000
    171          1           0       22.920000   23.100000   14.640000
    172          1           0       21.690000   23.240000   13.770000
    173          8           0       27.260000   18.180000   22.250000
    174          1           0       27.390000   17.910000   21.340000
    175          1           0       26.420000   18.640000   22.250000
    176          8           0       21.690000   21.880000   27.420000
    177          1           0       21.380000   21.340000   26.690000
    178          1           0       20.920000   22.370000   27.700000
    179          8           0       13.860000   15.870000   19.840000
    180          1           0       14.640000   15.560000   19.370000
    181          1           0       13.330000   15.090000   19.980000
    182          8           0       22.130000   17.850000   26.310000
    183          1           0       21.430000   18.340000   26.740000
    184          1           0       21.940000   16.930000   26.500000
    185          8           0       26.940000   17.950000   19.480000
    186          1           0       26.590000   18.090000   18.600000
    187          1           0       26.970000   16.990000   19.570000
    188          8           0       25.360000   21.070000   14.270000
    189          1           0       25.930000   21.470000   14.930000
    190          1           0       24.490000   21.090000   14.660000
    191          8           0       18.590000   27.230000   19.390000
    192          1           0       18.620000   28.190000   19.340000
    193          1           0       19.090000   27.020000   20.170000
    194          8           0       20.190000   20.220000   12.850000
    195          1           0       20.340000   20.610000   11.990000
    196          1           0       19.830000   19.360000   12.670000
    197          8           0       15.460000   21.960000   25.200000
    198          1           0       14.790000   22.640000   25.310000
    199          1           0       15.550000   21.570000   26.070000
    200          8           0       18.850000   13.140000   18.230000
    201          1           0       18.400000   12.930000   19.040000
    202          1           0       18.950000   12.300000   17.790000
    203          8           0       23.290000   14.080000   17.040000
    204          1           0       24.040000   14.570000   17.380000
    205          1           0       23.380000   14.130000   16.090000
    206          8           0       24.650000   25.460000   18.680000
    207          1           0       24.820000   26.370000   18.920000
[...]
   Z335      29.40414   0.00246   0.00000  -0.00398  -0.00428  29.39986
   X336      31.53953   0.01040   0.00000   0.00711   0.00742  31.54695
   Y336      53.06351   0.00449   0.00000   0.00102   0.00128  53.06479
   Z336      28.17582  -0.00912   0.00000  -0.00567  -0.00593  28.16989
   X337      31.82299   0.00148   0.00000  -0.00410  -0.00390  31.81908
   Y337      51.07930   0.00591   0.00000   0.01301   0.01324  51.09254
   Z337      30.21672   0.00271   0.00000   0.00360   0.00332  30.22004
   X338      39.92991  -0.02448   0.00000  -0.03089  -0.03075  39.89916
   Y338      55.16111   0.01778   0.00000   0.01133   0.01128  55.17238
   Z338      36.67958  -0.01481   0.00000  -0.00571  -0.00573  36.67385
   X339      40.36455   0.00858   0.00000   0.00718   0.00726  40.37181
   Y339      54.59419  -0.00680   0.00000  -0.00089  -0.00097  54.59322
   Z339      38.32365   0.01945   0.00000   0.00968   0.00966  38.33331
   X340      40.51573   0.00285   0.00000   0.00071   0.00084  40.51657
   Y340      53.83830   0.00078   0.00000   0.01019   0.01013  53.84843
   Z340      35.58354  -0.00530   0.00000  -0.00509  -0.00511  35.57843
   X341      30.76474  -0.01431   0.00000  -0.00545  -0.00634  30.75841
   Y341      33.97728   0.01914   0.00000   0.01355   0.01359  33.99087
   Z341      53.55484   0.00487   0.00000   0.00105   0.00059  53.55543
   X342      30.74584   0.00028   0.00000  -0.00011  -0.00106  30.74478
   Y342      32.95682  -0.00414   0.00000  -0.00096  -0.00094  32.95589
   Z342      55.04772   0.00484   0.00000   0.00221   0.00174  55.04946
   X343      31.89858   0.01469   0.00000   0.00943   0.00856  31.90713
   Y343      33.14580  -0.01252   0.00000  -0.00839  -0.00837  33.13743
   Z343      52.43990  -0.01372   0.00000  -0.00888  -0.00932  52.43058
   X344      22.54443   0.00045   0.00000   0.01279   0.01231  22.55674
   Y344      40.81808   0.02324   0.00000   0.01843   0.01877  40.83686
   Z344      45.56130  -0.00792   0.00000  -0.00658  -0.00719  45.55410
   X345      22.80899  -0.00086   0.00000  -0.00238  -0.00289  22.80610
   Y345      41.42280  -0.00205   0.00000  -0.00470  -0.00438  41.41842
   Z345      47.24315   0.00851   0.00000   0.00997   0.00937  47.25252
   X346      23.26253   0.00212   0.00000  -0.00590  -0.00643  23.25610
   Y346      39.15513  -0.02255   0.00000  -0.01707  -0.01675  39.13837
   Z346      45.56130  -0.00171   0.00000  -0.00353  -0.00414  45.55716
   X347      41.72515  -0.01048   0.00000  -0.01309  -0.01312  41.71203
   Y347      34.16625   0.01349   0.00000   0.01119   0.01124  34.17748
   Z347      21.08934  -0.01347   0.00000  -0.00408  -0.00426  21.08508
   X348      41.91413   0.01044   0.00000   0.01522   0.01512  41.92925
   Y348      33.05131  -0.00818   0.00000  -0.00044  -0.00042  33.05089
   Z348      22.48774   0.01752   0.00000   0.01245   0.01226  22.50000
   X349      40.36455   0.00187   0.00000   0.00122   0.00119  40.36574
   Y349      33.46705  -0.00324   0.00000  -0.00727  -0.00718  33.45987
   Z349      20.10669  -0.00279   0.00000  -0.00564  -0.00586  20.10082
   X350      47.03528   0.00679   0.00000   0.00220   0.00182  47.03710
   Y350      47.07308   0.00538   0.00000   0.00404   0.00368  47.07676
   Z350      48.13132  -0.02304   0.00000  -0.01312  -0.01303  48.11829
   X351      47.96125   0.00345   0.00000   0.00245   0.00208  47.96333
   Y351      48.33919   0.00851   0.00000   0.00935   0.00895  48.34815
   Z351      49.01950   0.00199   0.00000  -0.00264  -0.00252  49.01698
   X352      46.07152  -0.00609   0.00000   0.00376   0.00332  46.07485
   Y352      46.24160  -0.01224   0.00000  -0.00943  -0.00977  46.23183
   Z352      49.41634   0.02337   0.00000   0.01950   0.01956  49.43589
   X353      26.02153  -0.01091   0.00000  -0.01030  -0.01100  26.01053
   Y353      37.18981   0.02206   0.00000   0.01249   0.01269  37.20250
   Z353      50.11554   0.00138   0.00000   0.00485   0.00430  50.11983
   X354      26.68293   0.01201   0.00000   0.01070   0.00994  26.69288
   Y354      35.52685  -0.01305   0.00000  -0.00362  -0.00343  35.52342
   Z354      50.28561   0.00074   0.00000  -0.00156  -0.00212  50.28349
   X355      27.36323  -0.00233   0.00000  -0.00038  -0.00108  27.36216
   Y355      38.26695  -0.01078   0.00000  -0.01250  -0.01234  38.25462
   Z355      50.72025   0.00236   0.00000   0.00609   0.00558  50.72583
   X356      42.49994   0.00116   0.00000   0.00241   0.00218  42.50212
   Y356      52.38321   0.01483   0.00000   0.01440   0.01417  52.39738
   Z356      47.99904   0.01437   0.00000   0.01379   0.01380  48.01285
   X357      42.74561   0.00064   0.00000   0.00200   0.00171  42.74732
   Y357      52.08085  -0.00027   0.00000  -0.00175  -0.00200  52.07885
   Z357      49.77539   0.00080   0.00000   0.00595   0.00597  49.78135
   X358      42.59443  -0.00437   0.00000  -0.00810  -0.00835  42.58607
   Y358      50.72025  -0.00237   0.00000   0.00922   0.00900  50.72925
   Z358      47.26205  -0.01196   0.00000  -0.01424  -0.01424  47.24781
   X359      35.45126   0.02798   0.00000   0.02129   0.02121  35.47248
   Y359      53.91389   0.00991   0.00000   0.00366   0.00366  53.91755
   Z359      43.59598  -0.00237   0.00000  -0.00228  -0.00243  43.59355
   X360      33.82610  -0.01876   0.00000  -0.00754  -0.00760  33.81850
   Y360      53.83830  -0.00025   0.00000   0.00197   0.00203  53.84032
   Z360      42.82119  -0.00921   0.00000  -0.00549  -0.00569  42.81551
   X361      35.37567   0.00279   0.00000   0.00742   0.00728  35.38295
   Y361      52.74226  -0.01333   0.00000  -0.01202  -0.01203  52.73023
   Z361      44.95658   0.00985   0.00000   0.00521   0.00505  44.96163
   X362      55.63354  -0.00442   0.00000  -0.00689  -0.00722  55.62631
   Y362      36.33943   0.00148   0.00000  -0.00733  -0.00780  36.33163
   Z362      34.99773  -0.01863   0.00000  -0.02314  -0.02293  34.97480
   X363      57.10752   0.00682   0.00000   0.00507   0.00470  57.11223
   Y363      35.39457   0.00003   0.00000   0.00606   0.00554  35.40011
   Z363      35.43236   0.00497   0.00000   0.00534   0.00557  35.43794
   X364      54.31073  -0.00568   0.00000  -0.00279  -0.00317  54.30756
   Y364      35.62134  -0.00499   0.00000  -0.00336  -0.00380  35.61753
   Z364      36.01818   0.00651   0.00000   0.00474   0.00490  36.02308
   X365      32.97572   0.00180   0.00000   0.00889   0.00866  32.98438
   Y365      29.63091   0.01353   0.00000   0.01420   0.01447  29.64537
   Z365      23.96173   0.00611   0.00000   0.00352   0.00307  23.96480
   X366      32.48439  -0.00709   0.00000  -0.01072  -0.01089  32.47350
   Y366      30.27341   0.00062   0.00000  -0.00103  -0.00074  30.27268
   Z366      22.33656  -0.00484   0.00000  -0.00309  -0.00354  22.33302
   X367      33.92058   0.00258   0.00000  -0.00219  -0.00245  33.91813
   Y367      28.13802  -0.01168   0.00000  -0.00963  -0.00939  28.12863
   Z367      23.58378   0.00171   0.00000   0.00603   0.00559  23.58937
   X368      28.91281  -0.00366   0.00000  -0.00259  -0.00339  28.90942
   Y368      22.05310   0.00347   0.00000   0.00299   0.00323  22.05633
   Z368      37.77563  -0.01814   0.00000  -0.01158  -0.01220  37.76342
   X369      28.93171   0.00054   0.00000   0.00101   0.00023  28.93193
   Y369      23.52709   0.00528   0.00000   0.00196   0.00219  23.52928
   Z369      38.83387   0.00906   0.00000   0.00822   0.00761  38.84148
   X370      29.13958   0.00307   0.00000   0.00394   0.00308  29.14265
   Y370      20.67360  -0.00635   0.00000  -0.00146  -0.00124  20.67237
   Z370      38.90946   0.00902   0.00000   0.00507   0.00444  38.91390
   X371      38.04019  -0.01718   0.00000  -0.01350  -0.01390  38.02628
   Y371      49.62421  -0.00101   0.00000  -0.00599  -0.00613  49.61808
   Z371      51.62732   0.00226   0.00000   0.00656   0.00643  51.63375
   X372      39.38189   0.00721   0.00000   0.00296   0.00257  39.38446
   Y372      50.51238   0.00460   0.00000   0.00329   0.00310  50.51548
   Z372      52.43990   0.00074   0.00000  -0.00381  -0.00389  52.43601
   X373      38.77718   0.00693   0.00000   0.00651   0.00608  38.78326
   Y373      48.05574  -0.00807   0.00000  -0.00461  -0.00477  48.05096
   Z373      51.09819  -0.00698   0.00000  -0.00933  -0.00945  51.08874
   X374      31.61512   0.00309   0.00000   0.00307   0.00252  31.61764
   Y374      44.54084  -0.01118   0.00000  -0.00628  -0.00625  44.53459
   Z374      51.96747  -0.00660   0.00000  -0.00225  -0.00259  51.96488
   X375      31.80409   0.00062   0.00000   0.00102   0.00049  31.80458
   Y375      45.95814   0.01140   0.00000   0.00768   0.00769  45.96583
   Z375      53.06351   0.00797   0.00000   0.00505   0.00473  53.06824
   X376      29.87657  -0.00287   0.00000  -0.00096  -0.00150  29.87507
   Y376      44.57864   0.00329   0.00000   0.00460   0.00469  44.58333
   Z376      51.45724  -0.00099   0.00000  -0.00113  -0.00151  51.45573
   X377      30.93482  -0.00463   0.00000  -0.00004   0.00021  30.93503
   Y377      46.20380   0.00010   0.00000  -0.00530  -0.00497  46.19883
   Z377      22.96017  -0.02241   0.00000  -0.01765  -0.01800  22.94217
   X378      30.63246  -0.00099   0.00000  -0.00134  -0.00116  30.63130
   Y378      45.12666  -0.00269   0.00000   0.00437   0.00470  45.13136
   Z378      24.37747   0.01568   0.00000   0.01222   0.01186  24.38933
   X379      32.38991   0.00583   0.00000   0.00106   0.00133  32.39124
   Y379      47.16756   0.00344   0.00000   0.00147   0.00175  47.16932
   Z379      23.41371   0.00783   0.00000   0.00832   0.00802  23.42173
   X380      39.07954  -0.00259   0.00000  -0.00806  -0.00906  39.07048
   Y380      20.08779  -0.01261   0.00000  -0.00544  -0.00553  20.08225
   Z380      43.35032   0.00385   0.00000   0.00904   0.00866  43.35897
   X381      39.74094   0.00257   0.00000   0.00450   0.00345  39.74439
   Y381      19.82323   0.00008   0.00000   0.00057   0.00045  19.82367
   Z381      45.01328   0.00463   0.00000   0.00681   0.00644  45.01972
   X382      38.47482  -0.00636   0.00000  -0.00449  -0.00545  38.46938
   Y382      21.78854   0.01824   0.00000   0.01509   0.01502  21.80356
   Z382      43.38811   0.00155   0.00000   0.00267   0.00229  43.39040
   X383      46.43057  -0.00818   0.00000  -0.00277  -0.00264  46.42793
   Y383      41.17713   0.01144   0.00000   0.01161   0.01152  41.18865
   Z383      22.35546  -0.02468   0.00000  -0.02013  -0.02011  22.33535
   X384      46.60065  -0.00040   0.00000  -0.00235  -0.00225  46.59840
   Y384      39.53307  -0.00269   0.00000  -0.00183  -0.00192  39.53115
   Z384      21.59957   0.00377   0.00000   0.00457   0.00457  21.60414
   X385      47.14867   0.00542   0.00000  -0.00066  -0.00058  47.14809
   Y385      40.98816  -0.00729   0.00000  -0.00693  -0.00706  40.98110
   Z385      23.99952   0.01378   0.00000   0.00309   0.00312  24.00265
         Item               Value     Threshold  Converged?
 Maximum Force            0.034239     0.000450     NO 
 RMS     Force            0.010636     0.000300     NO 
 Maximum Displacement     0.030752     0.001800     NO 
 RMS     Displacement     0.008820     0.001200     NO 
 Predicted change in Energy=-7.461714D-02
 GradGradGradGradGradGradGradGradGradGradGradGradGradGradGradGradGradGrad

 Leave Link  103 at Sat May  5 16:11:22 2018, MaxMem= 14763950080 cpu:      2759.8
 (Enter /cm/shared/gaussian/g09.e01/intel64-sandybridge/g09/l9999.exe)
 1\1\GINC-POPLE07\Force\RPBE1PBE\CC-pVDZ\Br1H256O128(1-)\M.PELUSO\05-Ma
 y-2018\0\\#p PBE1PBE/cc-pvDZ force Counterpoise=2 noSymm\\forces on ch
 loride comput - NWATER: 128\\-1,1\Br,20.,20.,20.\O,17.58,18.95,21.74\H
 ,18.32,19.28,21.23\H,17.49,19.57,22.46\O,23.06,20.72,20.77\H,22.15,20.
 69,20.48\H,23.55,20.31,20.06\O,17.35,21.66,19.11\H,18.19,21.37,19.45\H
 ,17.03,22.28,19.77\O,19.92,16.87,18.82\H,20.12,17.75,19.16\H,18.99,16.
 76,19.\O,19.63,19.24,16.6\H,19.68,19.51,17.52\H,20.25,18.52,16.53\O,22
 .83,17.55,21.33\H,21.98,17.59,21.77\H,22.69,17.95,20.48\O,22.39,22.,23
 .01\H,23.17,22.54,22.95\H,22.35,21.53,22.18\O,21.06,23.18,16.84\H,20.6
 5,22.39,17.21\H,20.82,23.15,15.91\O,19.23,17.75,23.86\H,18.79,17.78,23
 .01\H,19.04,18.6,24.26\O,14.83,20.51,19.07\H,15.78,20.36,19.09\H,14.72
 ,21.38,19.44\O,19.4,21.58,14.97\H,19.3,20.94,15.67\H,19.4,21.06,14.17\
 O,16.77,16.29,21.38\H,16.96,16.,20.49\H,16.7,17.24,21.31\O,23.33,17.35
 ,18.21\H,23.99,16.73,17.9\H,23.83,18.04,18.64\O,17.1,23.67,17.22\H,16.
 17,23.82,17.36\H,17.31,22.93,17.79\O,20.9,20.27,25.08\H,20.96,20.91,24
 .37\H,21.12,19.44,24.68\O,24.61,19.86,18.88\H,25.52,20.14,18.92\H,24.2
 ,20.47,18.27\O,21.11,25.01,18.98\H,21.62,25.58,18.41\H,21.01,24.2,18.4
 8\O,24.91,19.54,22.39\H,24.16,20.,22.01\H,24.52,18.94,23.03\O,21.58,14
 .74,19.93\H,21.08,15.46,19.55\H,22.43,14.76,19.49\O,18.12,22.25,24.22\
 H,17.21,22.52,24.26\H,18.5,22.8,23.53\O,23.5,21.87,16.99\H,22.64,22.11
 ,16.62\H,24.11,22.49,16.6\O,19.94,15.29,16.61\H,19.9,14.44,17.04\H,20.
 28,15.88,17.28\O,16.69,18.7,15.51\H,16.82,18.51,14.58\H,17.58,18.69,15
 .87\O,22.87,18.68,15.69\H,23.07,18.22,16.5\H,22.03,18.33,15.41\O,16.13
 ,23.34,21.1\H,15.62,22.69,21.59\H,16.42,23.97,21.76\O,19.89,25.16,21.3
 1\H,20.15,25.32,20.41\H,20.7,25.19,21.81\O,25.29,23.33,20.13\H,24.49,2
 2.93,19.78\H,25.28,24.22,19.79\O,17.17,15.65,18.58\H,16.77,16.03,17.8\
 H,17.42,14.76,18.31\O,24.56,15.42,21.35\H,23.88,16.05,21.1\H,25.26,15.
 54,20.71\O,17.65,19.93,25.63\H,17.32,20.23,26.48\H,17.68,20.73,25.1\O,
 15.12,21.28,22.65\H,15.16,21.46,23.59\H,14.82,20.37,22.59\O,14.27,18.6
 4,21.29\H,14.37,19.44,20.78\H,14.29,17.93,20.65\O,22.52,20.79,14.15\H,
 22.7,20.11,14.8\H,21.81,20.43,13.62\O,17.85,14.85,23.54\H,18.73,14.48,
 23.47\H,17.71,15.29,22.7\O,20.83,17.13,14.85\H,20.38,16.38,15.23\H,20.
 28,17.38,14.1\O,22.35,25.44,16.61\H,22.49,25.51,15.67\H,21.86,24.62,16
 .72\O,23.02,25.38,21.27\H,23.89,25.05,21.03\H,22.53,25.39,20.45\O,20.2
 5,23.92,25.29\H,19.51,23.32,25.15\H,20.96,23.56,24.76\O,15.71,18.06,25
 .05\H,16.,18.09,24.14\H,16.52,18.,25.55\O,20.65,15.33,25.09\H,20.2,16.
 08,24.7\H,21.44,15.22,24.57\O,17.22,25.09,22.73\H,17.17,25.58,23.55\H,
 18.08,25.31,22.37\O,14.31,19.58,16.48\H,15.11,19.09,16.28\H,14.59,20.2
 5,17.11\O,16.15,25.93,19.71\H,16.43,25.13,20.15\H,16.97,26.37,19.47\O,
 24.18,17.92,24.46\H,23.34,18.01,24.91\H,24.78,18.48,24.95\O,22.67,14.6
 1,23.35\H,22.95,15.11,22.59\H,23.48,14.46,23.85\O,15.95,16.21,16.34\H,
 16.19,17.01,15.87\H,15.45,15.69,15.71\O,20.5,13.55,22.34\H,20.72,13.84
 ,21.45\H,21.27,13.78,22.86\O,16.59,23.,14.65\H,16.55,23.1,15.6\H,17.37
 ,22.47,14.5\O,26.7,21.53,21.54\H,26.23,22.15,20.99\H,26.02,21.02,21.97
 \O,26.09,18.45,16.69\H,26.64,18.44,15.91\H,25.33,18.97,16.43\O,18.29,1
 6.87,26.58\H,18.4,15.92,26.65\H,18.7,17.1,25.75\O,22.61,25.55,23.99\H,
 22.85,25.26,23.11\H,23.28,25.17,24.55\O,24.84,23.41,23.26\H,25.52,23.6
 2,22.61\H,24.95,24.07,23.94\O,18.22,26.55,16.82\H,18.55,26.65,17.71\H,
 18.05,25.61,16.73\O,13.08,22.15,20.67\H,12.51,22.89,20.9\H,13.69,22.08
 ,21.41\O,19.91,18.8,27.58\H,19.63,19.21,26.77\H,19.2,18.2,27.8\O,22.28
 ,23.74,14.33\H,22.92,23.1,14.64\H,21.69,23.24,13.77\O,27.26,18.18,22.2
 5\H,27.39,17.91,21.34\H,26.42,18.64,22.25\O,21.69,21.88,27.42\H,21.38,
 21.34,26.69\H,20.92,22.37,27.7\O,13.86,15.87,19.84\H,14.64,15.56,19.37
 \H,13.33,15.09,19.98\O,22.13,17.85,26.31\H,21.43,18.34,26.74\H,21.94,1
 6.93,26.5\O,26.94,17.95,19.48\H,26.59,18.09,18.6\H,26.97,16.99,19.57\O
 ,25.36,21.07,14.27\H,25.93,21.47,14.93\H,24.49,21.09,14.66\O,18.59,27.
 23,19.39\H,18.62,28.19,19.34\H,19.09,27.02,20.17\O,20.19,20.22,12.85\H
 ,20.34,20.61,11.99\H,19.83,19.36,12.67\O,15.46,21.96,25.2\H,14.79,22.6
 4,25.31\H,15.55,21.57,26.07\O,18.85,13.14,18.23\H,18.4,12.93,19.04\H,1
 8.95,12.3,17.79\O,23.29,14.08,17.04\H,24.04,14.57,17.38\H,23.38,14.13,
 16.09\O,24.65,25.46,18.68\H,24.82,26.37,18.92\H,24.26,25.51,17.8\O,25.
 92,21.44,25.35\H,25.35,21.77,24.65\H,25.32,21.25,26.07\O,25.46,15.9,17
 .29\H,26.03,16.48,16.77\H,26.04,15.56,17.97\O,18.13,12.77,20.81\H,17.4
 2,12.62,21.43\H,18.93,12.78,21.34\O,27.29,20.95,18.9\H,28.17,20.67,18.
 65\H,27.4,21.28,19.79\O,12.61,17.59,18.02\H,13.23,16.96,18.39\H,13.16,
 18.25,17.6\O,25.09,15.31,23.93\H,24.98,15.26,22.98\H,25.11,16.24,24.12
 \O,23.91,17.09,13.36\H,23.68,16.25,13.77\H,24.02,17.68,14.1\O,15.3,13.
 57,22.14\H,15.66,14.38,22.49\H,14.84,13.17,22.88\O,17.98,13.31,15.31\H
 ,18.56,13.96,15.71\H,17.55,12.89,16.06\O,19.27,17.72,12.81\H,19.5,17.5
 2,11.9\H,18.57,17.11,13.02\O,14.53,24.76,17.54\H,13.76,24.27,17.83\H,1
 4.8,25.26,18.31\O,25.15,23.72,15.75\H,25.54,24.46,16.2\H,25.78,23.49,1
 5.07\O,23.8,12.5,20.47\H,24.74,12.35,20.47\H,23.67,13.3,20.97\O,12.61,
 18.9,23.78\H,13.2,18.47,24.4\H,12.96,18.67,22.92\O,21.59,28.05,21.7\H,
 22.02,27.29,22.11\H,20.75,28.11,22.15\O,27.53,21.68,16.09\H,27.96,22.5
 3,16.1\H,27.07,21.63,16.92\O,12.19,22.84,17.77\H,12.66,22.01,17.81\H,1
 2.07,23.1,18.68\O,13.46,16.21,24.63\H,13.33,16.01,25.56\H,14.31,16.64,
 24.59\O,18.22,26.23,25.\H,17.86,26.96,25.51\H,18.61,25.65,25.66\O,14.9
 1,13.35,16.6\H,14.01,13.12,16.86\H,15.19,13.99,17.26\O,16.51,19.19,12.
 63\H,15.75,19.78,12.65\H,17.12,19.61,12.03\O,26.64,15.15,19.59\H,27.28
 ,15.29,20.28\H,26.41,14.22,19.66\O,13.78,19.4,13.74\H,13.79,19.11,14.6
 6\H,13.7,20.35,13.79\O,24.68,17.99,27.65\H,25.18,17.28,27.25\H,24.03,1
 8.23,26.99\O,19.23,22.65,28.28\H,18.56,22.96,27.66\H,18.74,22.36,29.04
 \O,22.38,28.23,17.43\H,22.37,27.44,16.88\H,22.35,28.95,16.8\O,12.43,15
 .11,22.2\H,13.01,15.87,22.19\H,12.89,14.46,22.73\O,13.91,24.21,14.41\H
 ,13.82,25.01,14.94\H,14.77,23.86,14.66\O,10.83,20.08,20.47\H,11.17,20.
 97,20.55\H,11.61,19.52,20.41\O,13.71,26.39,20.81\H,14.35,26.31,20.1\H,
 13.75,27.32,21.06\O,24.51,20.9,27.48\H,23.58,21.09,27.62\H,24.81,20.52
 ,28.3\O,19.68,12.68,25.52\H,19.81,13.62,25.64\H,20.13,12.28,26.26\O,19
 .83,28.07,15.26\H,19.35,27.4,15.75\H,19.57,28.9,15.65\O,23.47,24.09,27
 .49\H,22.89,23.34,27.34\H,23.64,24.07,28.44\O,16.3,28.37,21.99\H,15.62
 ,28.28,22.66\H,16.24,27.56,21.48\O,21.15,12.51,14.6\H,21.56,13.33,14.8
 4\H,20.46,12.76,13.98\O,26.56,25.13,22.22\H,26.91,25.37,21.36\H,27.32,
 24.78,22.69\O,27.64,18.89,24.9\H,27.62,19.01,23.95\H,26.98,19.51,25.23
 \O,21.47,10.85,20.43\H,22.04,11.61,20.37\H,21.16,10.84,21.34\O,29.46,2
 0.41,21.03\H,30.03,19.83,21.54\H,28.57,20.14,21.27\O,22.96,14.46,14.03
 \H,22.53,14.61,13.18\H,23.55,13.73,13.87\O,17.33,12.24,24.32\H,16.91,1
 3.09,24.24\H,18.2,12.42,24.68\O,16.19,27.6,15.56\H,16.69,28.08,14.91\H
 ,16.84,27.03,15.99\O,21.13,29.19,19.41\H,21.36,28.89,20.28\H,21.44,28.
 49,18.83\O,16.28,17.98,28.34\H,16.27,17.44,29.13\H,16.88,17.54,27.75\O
 ,11.93,21.6,24.11\H,12.07,21.92,25.\H,12.31,20.72,24.11\O,22.08,18.08,
 11.16\H,22.18,17.49,11.9\H,21.36,17.71,10.64\O,24.89,24.91,25.47\H,25.
 38,25.58,25.94\H,24.38,24.47,26.15\O,13.77,19.68,26.52\H,14.12,18.8,26
 .61\H,14.48,20.25,26.84\O,22.49,27.72,25.4\H,22.62,27.56,26.34\H,22.54
 ,26.84,25.01\O,18.76,28.53,23.07\H,17.9,28.49,22.66\H,18.72,27.91,23.7
 9\O,29.44,19.23,18.52\H,30.22,18.73,18.75\H,28.74,18.85,19.06\O,17.45,
 15.68,12.68\H,17.19,16.02,11.82\H,17.95,14.89,12.48\O,15.3,11.67,19.99
 \H,15.31,12.45,20.55\H,15.42,10.94,20.59\O,20.13,26.26,27.32\H,20.84,2
 6.73,27.75\H,20.52,25.43,27.04\O,16.73,23.57,27.5\H,16.83,24.32,28.08\
 H,15.81,23.59,27.23\O,16.37,24.45,12.15\H,16.21,23.88,12.9\H,17.14,24.
 96,12.39\O,20.68,10.63,22.94\H,21.03,10.49,23.82\H,20.36,11.53,22.96\O
 ,24.57,21.79,11.83\H,24.66,20.92,11.43\H,24.95,21.69,12.7\\Version=ES6
 4L-G09RevE.01\HF=-9773.3982283\RMSD=2.002e-09\RMSF=1.064e-02\Dipole=9.
 5093914,-1.2666559,6.3367116\Quadrupole=276.4016616,-535.1638755,258.7
 622139,-1150.138698,-989.4220643,-1160.1176997\PG=C01 [X(Br1H256O128)]
 \\@


 You never know when you're making a memory.
                        -- Rickie Lee Jones
 Job cpu time:       7 days  9 hours  5 minutes 55.7 seconds.
 File lengths (MBytes):  RWF=   7285 Int=      0 D2E=      0 Chk=   2411 Scr=      1
 Normal termination of Gaussian 09 at Sat May  5 16:11:48 2018.
