 Entering Gaussian System, Link 0=/cm/shared/gaussian/g09.e01/intel64-sandybridge/g09/g09
 Initial command:
 /cm/shared/gaussian/g09.e01/intel64-sandybridge/g09/l1.exe "/local/scratch/m.peluso/128_wat/300a/Gau-35597.inp" -scrdir="/local/scratch/m.peluso/128_wat/300a/"
 Entering Link 1 = /cm/shared/gaussian/g09.e01/intel64-sandybridge/g09/l1.exe PID=     35598.
  
 Copyright (c) 1988,1990,1992,1993,1995,1998,2003,2009,2015,
            Gaussian, Inc.  All Rights Reserved.
  
 This is part of the Gaussian(R) 09 program.  It is based on
 the Gaussian(R) 03 system (copyright 2003, Gaussian, Inc.),
 the Gaussian(R) 98 system (copyright 1998, Gaussian, Inc.),
 the Gaussian(R) 94 system (copyright 1995, Gaussian, Inc.),
 the Gaussian 92(TM) system (copyright 1992, Gaussian, Inc.),
 the Gaussian 90(TM) system (copyright 1990, Gaussian, Inc.),
 the Gaussian 88(TM) system (copyright 1988, Gaussian, Inc.),
 the Gaussian 86(TM) system (copyright 1986, Carnegie Mellon
 University), and the Gaussian 82(TM) system (copyright 1983,
 Carnegie Mellon University). Gaussian is a federally registered
 trademark of Gaussian, Inc.
  
 This software contains proprietary and confidential information,
 including trade secrets, belonging to Gaussian, Inc.
  
 This software is provided under written license and may be
 used, copied, transmitted, or stored only in accord with that
 written license.
  
 The following legend is applicable only to US Government
 contracts under FAR:
  
                    RESTRICTED RIGHTS LEGEND
  
 Use, reproduction and disclosure by the US Government is
 subject to restrictions as set forth in subparagraphs (a)
 and (c) of the Commercial Computer Software - Restricted
 Rights clause in FAR 52.227-19.
  
 Gaussian, Inc.
 340 Quinnipiac St., Bldg. 40, Wallingford CT 06492
  
  
 ---------------------------------------------------------------
 Warning -- This program may not be used in any manner that
 competes with the business of Gaussian, Inc. or will provide
 assistance to any competitor of Gaussian, Inc.  The licensee
 of this program is prohibited from giving any competitor of
 Gaussian, Inc. access to this program.  By using this program,
 the user acknowledges that Gaussian, Inc. is engaged in the
 business of creating and licensing software in the field of
 computational chemistry and represents and warrants to the
 licensee that it is not a competitor of Gaussian, Inc. and that
 it will not use this program in any manner prohibited above.
 ---------------------------------------------------------------
  

 Cite this work as:
 Gaussian 09, Revision E.01,
 M. J. Frisch, G. W. Trucks, H. B. Schlegel, G. E. Scuseria, 
 M. A. Robb, J. R. Cheeseman, G. Scalmani, V. Barone, B. Mennucci, 
 G. A. Petersson, H. Nakatsuji, M. Caricato, X. Li, H. P. Hratchian, 
 A. F. Izmaylov, J. Bloino, G. Zheng, J. L. Sonnenberg, M. Hada, 
 M. Ehara, K. Toyota, R. Fukuda, J. Hasegawa, M. Ishida, T. Nakajima, 
 Y. Honda, O. Kitao, H. Nakai, T. Vreven, J. A. Montgomery, Jr., 
 J. E. Peralta, F. Ogliaro, M. Bearpark, J. J. Heyd, E. Brothers, 
 K. N. Kudin, V. N. Staroverov, T. Keith, R. Kobayashi, J. Normand, 
 K. Raghavachari, A. Rendell, J. C. Burant, S. S. Iyengar, J. Tomasi, 
 M. Cossi, N. Rega, J. M. Millam, M. Klene, J. E. Knox, J. B. Cross, 
 V. Bakken, C. Adamo, J. Jaramillo, R. Gomperts, R. E. Stratmann, 
 O. Yazyev, A. J. Austin, R. Cammi, C. Pomelli, J. W. Ochterski, 
 R. L. Martin, K. Morokuma, V. G. Zakrzewski, G. A. Voth, 
 P. Salvador, J. J. Dannenberg, S. Dapprich, A. D. Daniels, 
 O. Farkas, J. B. Foresman, J. V. Ortiz, J. Cioslowski, 
 and D. J. Fox, Gaussian, Inc., Wallingford CT, 2013.
 
 ******************************************
 Gaussian 09:  ES64L-G09RevE.01 30-Nov-2015
                 6-May-2018 
 ******************************************
 %Mem=110GB
 %NProcShared=64
 Will use up to   64 processors via shared memory.
 %chk=snap35.chk
 ----------------------------------------------
 #p PBE1PBE/cc-pvDZ force Counterpoise=2 noSymm
 ----------------------------------------------
 1/10=7,30=1,38=1,62=2/1,3;
 2/12=2,15=1,17=6,18=5,40=1/2;
 1/10=7,30=1,38=1,53=2,62=2,63=101/22;
 3/5=16,11=2,16=1,25=1,30=1,71=1,74=-13/1,2,3;
 4//1;
 5/5=2,38=5/2;
 6/7=2,8=2,9=2,10=2,28=1/1;
 7/7=1,29=1,30=1,33=-1/1,2,3,16;
 1/10=7,30=1,53=2,62=2,63=101/22;
 3/5=7,6=11,11=2,16=1,25=1,30=1,71=1,74=-13,82=7/1,2,3;
 4//1;
 5/5=2,38=5/2;
 6/7=2,8=2,9=2,10=2,28=1/1;
 7/7=1,29=1,30=1,33=-1/1,2,3,16;
 1/10=7,30=1,53=2,62=2,63=101/22(-5);
 7/9=1,29=1,44=-1/16;
 1/10=7,30=1,62=2/3;
 99//99;
 Leave Link    1 at Sun May  6 03:44:16 2018, MaxMem= 14763950080 cpu:         4.4
 (Enter /cm/shared/gaussian/g09.e01/intel64-sandybridge/g09/l101.exe)
 ---------------------------------------
 forces on chloride comput - NWATER: 128
 ---------------------------------------
 Symbolic Z-matrix:
 Charge = -1 Multiplicity = 1 in supermolecule
 Charge = -1 Multiplicity = 1 in fragment      1.
 Charge =  0 Multiplicity = 1 in fragment      2.
 Br(Fragment=1)        20.       20.       20. 
 O(Fragment=2)         20.16     22.97     20.91 
 H(Fragment=2)         20.08     22.03     20.77 
 H(Fragment=2)         21.02     23.19     20.56 
 O(Fragment=2)         17.48     18.44     18.89 
 H(Fragment=2)         18.26     18.94     19.14 
 H(Fragment=2)         17.3      17.88     19.65 
 O(Fragment=2)         20.6      17.51     17.71 
 H(Fragment=2)         20.53     16.66     18.14 
 H(Fragment=2)         20.39     18.14     18.4 
 O(Fragment=2)         17.04     20.94     21.4 
 H(Fragment=2)         16.78     20.02     21.51 
 H(Fragment=2)         17.93     20.89     21.06 
 O(Fragment=2)         19.5      21.62     16.92 
 H(Fragment=2)         18.55     21.78     16.95 
 H(Fragment=2)         19.68     21.14     17.73 
 O(Fragment=2)         23.21     19.19     19.12 
 H(Fragment=2)         23.31     19.96     18.56 
 H(Fragment=2)         22.52     19.43     19.73 
 O(Fragment=2)         20.19     18.41     23.45 
 H(Fragment=2)         20.97     18.95     23.57 
 H(Fragment=2)         19.91     18.59     22.56 
 O(Fragment=2)         22.23     20.07     22.93 
 H(Fragment=2)         22.62     20.88     22.62 
 H(Fragment=2)         22.25     19.48     22.17 
 O(Fragment=2)         20.64     15.99     20. 
 H(Fragment=2)         20.44     15.56     20.83 
 H(Fragment=2)         20.94     16.86     20.24 
 O(Fragment=2)         22.51     17.62     21.35 
 H(Fragment=2)         22.96     16.79     21.53 
 H(Fragment=2)         22.84     17.87     20.48 
 O(Fragment=2)         20.35     22.28     23.77 
 H(Fragment=2)         20.82     21.45     23.83 
 H(Fragment=2)         20.47     22.56     22.86 
 O(Fragment=2)         17.05     18.23     21.81 
 H(Fragment=2)         16.22     18.08     22.26 
 H(Fragment=2)         17.6      17.48     22.07 
 O(Fragment=2)         21.84     19.19     15.91 
 H(Fragment=2)         21.38     18.48     16.36 
 H(Fragment=2)         21.63     19.97     16.41 
 O(Fragment=2)         16.29     20.63     17.93 
 H(Fragment=2)         16.26     20.54     16.98 
 H(Fragment=2)         16.41     19.73     18.25 
 O(Fragment=2)         16.65     22.76     19.3 
 H(Fragment=2)         16.35     22.34     20.11 
 H(Fragment=2)         16.77     22.03     18.69 
 O(Fragment=2)         23.3      22.11     21.55 
 H(Fragment=2)         23.37     22.99     21.93 
 H(Fragment=2)         23.31     22.25     20.61 
 O(Fragment=2)         21.12     23.72     17.6 
 H(Fragment=2)         21.03     24.39     16.92 
 H(Fragment=2)         20.57     22.99     17.3 
 O(Fragment=2)         17.9      24.26     21.33 
 H(Fragment=2)         18.75     23.82     21.28 
 H(Fragment=2)         17.41     23.94     20.57 
 O(Fragment=2)         23.32     21.31     17.29 
 H(Fragment=2)         23.19     22.11     17.81 
 H(Fragment=2)         23.28     21.61     16.38 
 O(Fragment=2)         17.02     17.43     16.26 
 H(Fragment=2)         16.79     18.19     15.73 
 H(Fragment=2)         17.5      17.78     17. 
 O(Fragment=2)         23.3      23.28     19.16 
 H(Fragment=2)         23.99     23.88     18.87 
 H(Fragment=2)         22.52     23.57     18.68 
 O(Fragment=2)         23.89     16.67     17.56 
 H(Fragment=2)         24.68     16.76     18.1 
 H(Fragment=2)         23.53     17.55     17.51 
 O(Fragment=2)         18.71     19.95     25.59 
 H(Fragment=2)         18.87     19.41     24.82 
 H(Fragment=2)         18.48     20.81     25.24 
 O(Fragment=2)         20.81     25.84     20.88 
 H(Fragment=2)         20.28     25.1      20.59 
 H(Fragment=2)         20.35     26.16     21.66 
 O(Fragment=2)         19.99     21.75     14.01 
 H(Fragment=2)         19.7      21.7      14.92 
 H(Fragment=2)         20.83     21.29     14.01 
 O(Fragment=2)         21.8      15.43     16.19 
 H(Fragment=2)         22.       15.95     16.96 
 H(Fragment=2)         22.66     15.17     15.85 
 O(Fragment=2)         15.07     21.9      23.62 
 H(Fragment=2)         14.48     21.83     22.87 
 H(Fragment=2)         15.93     21.68     23.26 
 O(Fragment=2)         20.26     15.91     25. 
 H(Fragment=2)         21.06     15.43     24.78 
 H(Fragment=2)         20.32     16.73     24.52 
 O(Fragment=2)         24.86     19.2      15.71 
 H(Fragment=2)         25.23     20.05     15.48 
 H(Fragment=2)         24.04     19.41     16.17 
 O(Fragment=2)         18.03     15.56     23.02 
 H(Fragment=2)         17.65     15.29     23.86 
 H(Fragment=2)         18.97     15.42     23.12 
 O(Fragment=2)         21.29     13.44     18.8 
 H(Fragment=2)         21.17     14.24     19.32 
 H(Fragment=2)         22.2      13.48     18.5 
 O(Fragment=2)         20.57     14.55     22.24 
 H(Fragment=2)         19.91     13.94     21.91 
 H(Fragment=2)         21.13     14.02     22.81 
 O(Fragment=2)         19.56     16.23     14.63 
 H(Fragment=2)         19.06     16.31     15.43 
 H(Fragment=2)         20.45     16.01     14.92 
 O(Fragment=2)         16.89     14.9      19.65 
 H(Fragment=2)         16.59     15.14     20.53 
 H(Fragment=2)         17.7      14.41     19.8 
 O(Fragment=2)         22.53     20.74     13.82 
 H(Fragment=2)         23.28     20.31     13.41 
 H(Fragment=2)         22.17     20.07     14.42 
 O(Fragment=2)         16.03     23.96     16.92 
 H(Fragment=2)         15.82     23.71     17.83 
 H(Fragment=2)         16.88     24.39     16.98 
 O(Fragment=2)         16.33     20.06     15.25 
 H(Fragment=2)         15.71     19.56     14.72 
 H(Fragment=2)         16.51     20.84     14.72 
 O(Fragment=2)         23.18     17.66     25.33 
 H(Fragment=2)         23.18     17.38     24.42 
 H(Fragment=2)         23.6      16.94     25.8 
 O(Fragment=2)         13.98     21.62     20.74 
 H(Fragment=2)         13.74     21.74     19.82 
 H(Fragment=2)         13.9      20.68     20.89 
 O(Fragment=2)         26.62     18.94     22.52 
 H(Fragment=2)         27.27     19.       21.82 
 H(Fragment=2)         25.83     19.33     22.15 
 O(Fragment=2)         21.5      20.06     26.77 
 H(Fragment=2)         20.9      19.34     26.93 
 H(Fragment=2)         21.94     19.83     25.95 
 O(Fragment=2)         24.       15.48     21.78 
 H(Fragment=2)         24.25     14.67     21.33 
 H(Fragment=2)         24.83     15.91     21.98 
 O(Fragment=2)         23.59     24.57     22.67 
 H(Fragment=2)         23.33     25.16     23.38 
 H(Fragment=2)         24.28     25.04     22.2 
 O(Fragment=2)         24.31     22.86     24.75 
 H(Fragment=2)         24.03     23.14     23.88 
 H(Fragment=2)         24.25     21.91     24.73 
 O(Fragment=2)         21.7      23.97     25.83 
 H(Fragment=2)         22.48     23.43     25.73 
 H(Fragment=2)         21.03     23.53     25.3 
 O(Fragment=2)         24.55     20.07     25.61 
 H(Fragment=2)         24.72     19.57     26.41 
 H(Fragment=2)         23.9      19.55     25.14 
 O(Fragment=2)         18.09     25.38     16.55 
 H(Fragment=2)         17.83     26.1      15.98 
 H(Fragment=2)         18.93     25.65     16.93 
 O(Fragment=2)         17.69     26.52     22.88 
 H(Fragment=2)         18.58     26.61     23.22 
 H(Fragment=2)         17.67     25.65     22.47 
 O(Fragment=2)         16.12     14.76     17.14 
 H(Fragment=2)         16.14     15.01     18.07 
 H(Fragment=2)         16.38     15.55     16.67 
 O(Fragment=2)         22.44     26.83     18.97 
 H(Fragment=2)         21.59     26.88     18.54 
 H(Fragment=2)         22.28     26.32     19.77 
 O(Fragment=2)         14.63     24.33     21.45 
 H(Fragment=2)         15.07     24.57     20.64 
 H(Fragment=2)         14.14     23.54     21.23 
 O(Fragment=2)         19.88     26.88     17.93 
 H(Fragment=2)         19.37     26.61     18.7 
 H(Fragment=2)         19.7      27.82     17.84 
 O(Fragment=2)         13.33     18.69     20.44 
 H(Fragment=2)         13.48     17.9      19.92 
 H(Fragment=2)         12.62     18.45     21.04 
 O(Fragment=2)         16.24     22.84     14.39 
 H(Fragment=2)         16.1      23.15     15.29 
 H(Fragment=2)         16.99     23.34     14.08 
 O(Fragment=2)         23.06     14.85     24.27 
 H(Fragment=2)         22.49     14.08     24.37 
 H(Fragment=2)         23.27     14.88     23.34 
 O(Fragment=2)         14.66     17.24     23.51 
 H(Fragment=2)         14.24     16.92     22.71 
 H(Fragment=2)         14.69     16.48     24.09 
 O(Fragment=2)         27.6      20.45     20.1 
 H(Fragment=2)         26.93     20.55     19.43 
 H(Fragment=2)         28.3      19.95     19.68 
 O(Fragment=2)         12.94     21.28     18.15 
 H(Fragment=2)         13.23     20.37     18.11 
 H(Fragment=2)         13.08     21.61     17.27 
 O(Fragment=2)         24.09     16.61     14.46 
 H(Fragment=2)         23.58     17.02     13.75 
 H(Fragment=2)         24.28     17.33     15.06 
 O(Fragment=2)         16.18     23.58     25.52 
 H(Fragment=2)         16.17     23.03     26.3 
 H(Fragment=2)         15.76     23.05     24.84 
 O(Fragment=2)         18.76     25.12     25.69 
 H(Fragment=2)         18.17     24.56     25.18 
 H(Fragment=2)         18.95     24.62     26.48 
 O(Fragment=2)         18.       27.25     19.96 
 H(Fragment=2)         17.25     26.96     19.45 
 H(Fragment=2)         17.92     26.79     20.8 
 O(Fragment=2)         24.51     13.92     19.27 
 H(Fragment=2)         24.45     13.77     18.33 
 H(Fragment=2)         24.96     14.77     19.35 
 O(Fragment=2)         14.66     19.01     25.94 
 H(Fragment=2)         14.84     18.87     25.01 
 H(Fragment=2)         15.41     18.61     26.39 
 O(Fragment=2)         16.45     16.46     13.5 
 H(Fragment=2)         15.7      17.01     13.69 
 H(Fragment=2)         16.97     16.47     14.3 
 O(Fragment=2)         20.6      16.96     27.27 
 H(Fragment=2)         20.56     16.48     26.44 
 H(Fragment=2)         21.37     16.61     27.71 
 O(Fragment=2)         27.05     17.79     17.02 
 H(Fragment=2)         27.82     18.2      16.63 
 H(Fragment=2)         26.31     18.23     16.6 
 O(Fragment=2)         17.02     18.71     27.5 
 H(Fragment=2)         17.64     19.19     26.96 
 H(Fragment=2)         17.52     18.43     28.27 
 O(Fragment=2)         26.24     16.17     18.96 
 H(Fragment=2)         26.9      16.66     18.46 
 H(Fragment=2)         26.54     16.23     19.87 
 O(Fragment=2)         20.31     26.4      23.78 
 H(Fragment=2)         20.06     25.87     24.54 
 H(Fragment=2)         21.26     26.47     23.85 
 O(Fragment=2)         14.57     15.04     21.29 
 H(Fragment=2)         14.13     14.4      21.86 
 H(Fragment=2)         13.85     15.42     20.78 
 O(Fragment=2)         20.27     13.12     15.74 
 H(Fragment=2)         19.79     13.04     16.57 
 H(Fragment=2)         20.97     13.75     15.93 
 O(Fragment=2)         24.37     23.72     15.08 
 H(Fragment=2)         24.92     23.02     14.74 
 H(Fragment=2)         24.9      24.51     15.01 
 O(Fragment=2)         21.16     25.83     15.32 
 H(Fragment=2)         21.35     26.76     15.24 
 H(Fragment=2)         21.5      25.44     14.52 
 O(Fragment=2)         18.       14.53     26.07 
 H(Fragment=2)         18.14     13.8      25.47 
 H(Fragment=2)         18.61     15.2      25.77 
 O(Fragment=2)         17.96     24.66     13.41 
 H(Fragment=2)         18.25     24.79     14.31 
 H(Fragment=2)         17.47     25.46     13.2 
 O(Fragment=2)         19.78     11.38     18.98 
 H(Fragment=2)         20.18     12.24     18.89 
 H(Fragment=2)         20.41     10.78     18.58 
 O(Fragment=2)         26.63     15.98     21.83 
 H(Fragment=2)         27.33     16.61     21.67 
 H(Fragment=2)         26.99     15.36     22.47 
 O(Fragment=2)         19.58     22.47     11.46 
 H(Fragment=2)         18.82     23.04     11.6 
 H(Fragment=2)         19.75     22.07     12.31 
 O(Fragment=2)         17.09     12.28     17.94 
 H(Fragment=2)         16.81     13.04     17.42 
 H(Fragment=2)         17.17     12.62     18.83 
 O(Fragment=2)         18.68     12.23     21.53 
 H(Fragment=2)         19.28     11.77     20.95 
 H(Fragment=2)         17.96     11.61     21.67 
 O(Fragment=2)         22.33     22.23     27.9 
 H(Fragment=2)         21.76     22.76     27.35 
 H(Fragment=2)         22.16     21.33     27.64 
 O(Fragment=2)         11.84     22.34     22.45 
 H(Fragment=2)         12.47     22.39     21.73 
 H(Fragment=2)         11.38     21.52     22.31 
 O(Fragment=2)         13.46     25.39     18.89 
 H(Fragment=2)         14.29     25.54     18.43 
 H(Fragment=2)         13.29     26.22     19.34 
 O(Fragment=2)         13.17     21.46     25.61 
 H(Fragment=2)         13.57     20.66     25.95 
 H(Fragment=2)         13.7      21.69     24.84 
 O(Fragment=2)         19.15     16.3      11.93 
 H(Fragment=2)         19.13     16.17     12.88 
 H(Fragment=2)         18.29     16.66     11.72 
 O(Fragment=2)         24.57     27.12     17.36 
 H(Fragment=2)         24.25     27.12     16.46 
 H(Fragment=2)         23.79     26.92     17.88 
 O(Fragment=2)         28.24     22.74     21.43 
 H(Fragment=2)         27.99     21.88     21.07 
 H(Fragment=2)         27.4      23.17     21.6 
 O(Fragment=2)         12.75     16.1      19.56 
 H(Fragment=2)         12.69     16.12     18.61 
 H(Fragment=2)         11.89     15.81     19.85 
 O(Fragment=2)         14.47     18.26     13.93 
 H(Fragment=2)         13.89     18.56     14.64 
 H(Fragment=2)         13.88     18.01     13.22 
 O(Fragment=2)         15.73     26.9      18.43 
 H(Fragment=2)         15.49     27.33     17.61 
 H(Fragment=2)         15.19     27.33     19.09 
 O(Fragment=2)         25.91     25.62     21.4 
 H(Fragment=2)         26.64     25.65     22.01 
 H(Fragment=2)         26.31     25.42     20.55 
 O(Fragment=2)         11.66     23.35     19.49 
 H(Fragment=2)         12.21     22.74     19. 
 H(Fragment=2)         12.21     24.13     19.59 
 O(Fragment=2)         18.56     19.31     11.09 
 H(Fragment=2)         17.78     18.75     11.12 
 H(Fragment=2)         18.42     19.94     11.8 
 O(Fragment=2)         14.2      25.46     15.24 
 H(Fragment=2)         14.94     25.15     15.75 
 H(Fragment=2)         14.57     25.64     14.37 
 O(Fragment=2)         15.64     26.19     24.84 
 H(Fragment=2)         15.87     25.29     25.08 
 H(Fragment=2)         16.35     26.47     24.26 
 O(Fragment=2)         26.49     15.41     15.48 
 H(Fragment=2)         25.57     15.66     15.39 
 H(Fragment=2)         26.97     16.23     15.43 
 O(Fragment=2)         26.06     21.31     14.25 
 H(Fragment=2)         26.76     21.94     14.11 
 H(Fragment=2)         25.9      20.93     13.38 
 O(Fragment=2)         13.6      13.87     17.16 
 H(Fragment=2)         13.64     13.15     16.53 
 H(Fragment=2)         14.5      14.17     17.25 
 O(Fragment=2)         22.72     24.94     13.12 
 H(Fragment=2)         23.38     24.48     13.64 
 H(Fragment=2)         23.09     25.82     12.99 
 O(Fragment=2)         24.6      15.44     26.38 
 H(Fragment=2)         25.52     15.66     26.29 
 H(Fragment=2)         24.32     15.18     25.5 
 O(Fragment=2)         16.42     21.89     27.68 
 H(Fragment=2)         16.1      22.11     28.55 
 H(Fragment=2)         16.38     20.93     27.64 
 O(Fragment=2)         12.35     18.69     16.33 
 H(Fragment=2)         12.37     17.87     16.84 
 H(Fragment=2)         11.47     19.04     16.48 
 O(Fragment=2)         14.1      21.67     12.95 
 H(Fragment=2)         14.53     22.       13.73 
 H(Fragment=2)         14.08     22.41     12.34 
 O(Fragment=2)         13.26     25.86     23.07 
 H(Fragment=2)         13.8      25.4      22.42 
 H(Fragment=2)         13.88     26.13     23.74 
 O(Fragment=2)         21.64     29.17     20.65 
 H(Fragment=2)         22.5      29.58     20.73 
 H(Fragment=2)         21.8      28.39     20.12 
 O(Fragment=2)         18.68     23.46     27.77 
 H(Fragment=2)         19.17     22.84     28.3 
 H(Fragment=2)         17.8      23.09     27.71 
 O(Fragment=2)         22.42     22.72     11.26 
 H(Fragment=2)         22.46     22.72     12.21 
 H(Fragment=2)         21.49     22.58     11.06 
 O(Fragment=2)         18.54     12.36     24.46 
 H(Fragment=2)         18.5      12.09     23.54 
 H(Fragment=2)         19.43     12.69     24.57 
 O(Fragment=2)         13.       22.7      15.57 
 H(Fragment=2)         12.59     22.57     14.72 
 H(Fragment=2)         13.49     23.51     15.49 
 O(Fragment=2)         26.71     25.31     18.15 
 H(Fragment=2)         26.03     25.87     17.79 
 H(Fragment=2)         27.07     24.85     17.4 
 O(Fragment=2)         27.07     18.34     13.8 
 H(Fragment=2)         26.19     18.63     14.04 
 H(Fragment=2)         27.05     18.29     12.84 
 O(Fragment=2)         17.       12.95     14.65 
 H(Fragment=2)         17.05     12.34     13.92 
 H(Fragment=2)         17.82     13.45     14.59 
 O(Fragment=2)         26.67     23.88     25.7 
 H(Fragment=2)         26.94     24.37     24.93 
 H(Fragment=2)         25.76     23.65     25.55 
 O(Fragment=2)         21.81     26.35     27.17 
 H(Fragment=2)         21.81     25.67     26.5 
 H(Fragment=2)         21.19     26.04     27.83 
 O(Fragment=2)         21.52     12.58     24.52 
 H(Fragment=2)         21.16     12.17     25.31 
 H(Fragment=2)         22.19     11.97     24.22 
 O(Fragment=2)         19.09     17.89     29.32 
 H(Fragment=2)         19.54     17.68     28.5 
 H(Fragment=2)         19.39     17.24     29.95 
 O(Fragment=2)         28.53     18.13     24.42 
 H(Fragment=2)         29.05     17.76     23.71 
 H(Fragment=2)         27.71     18.39     24. 
 O(Fragment=2)         23.25     26.9      24.47 
 H(Fragment=2)         23.75     27.25     23.73 
 H(Fragment=2)         23.46     27.48     25.2 
 O(Fragment=2)         24.4      19.6      12.32 
 H(Fragment=2)         24.39     18.67     12.1 
 H(Fragment=2)         24.46     20.04     11.47 
 O(Fragment=2)         24.44     12.93     16.83 
 H(Fragment=2)         23.82     12.24     16.6 
 H(Fragment=2)         24.85     13.17     16. 
 O(Fragment=2)         18.85     29.53     20.99 
 H(Fragment=2)         18.36     28.78     20.66 
 H(Fragment=2)         19.76     29.24     20.96 
 O(Fragment=2)         21.77     15.14     11.96 
 H(Fragment=2)         20.99     15.65     12.17 
 H(Fragment=2)         21.5      14.54     11.27 
 O(Fragment=2)         23.96     13.76     14.27 
 H(Fragment=2)         23.22     13.39     13.8 
 H(Fragment=2)         24.05     14.65     13.91 
 O(Fragment=2)         27.58     13.93     17.46 
 H(Fragment=2)         26.95     14.43     17.97 
 H(Fragment=2)         27.39     14.15     16.55 
 O(Fragment=2)         28.72     17.28     20.17 
 H(Fragment=2)         29.43     17.36     20.81 
 H(Fragment=2)         29.03     17.74     19.39 
 O(Fragment=2)         20.33     25.46     11.86 
 H(Fragment=2)         21.15     25.04     12.16 
 H(Fragment=2)         19.64     24.96     12.3 
 O(Fragment=2)         11.12     19.61     22.26 
 H(Fragment=2)         10.93     19.68     23.2 
 H(Fragment=2)         10.43     19.06     21.91 
 
 NAtoms=    385 NQM=      385 NQMF=       0 NMMI=      0 NMMIF=      0
                NMic=       0 NMicF=      0.
                    Isotopes and Nuclear Properties:
 (Nuclear quadrupole moments (NQMom) in fm**2, nuclear magnetic moments (NMagM)
  in nuclear magnetons)

  Atom         1           2           3           4           5           6           7           8           9          10
 IAtWgt=          79          16           1           1          16           1           1          16           1           1
 AtmWgt=  78.9183361  15.9949146   1.0078250   1.0078250  15.9949146   1.0078250   1.0078250  15.9949146   1.0078250   1.0078250
 NucSpn=           3           0           1           1           0           1           1           0           1           1
 AtZEff=   0.0000000   0.0000000   0.0000000   0.0000000   0.0000000   0.0000000   0.0000000   0.0000000   0.0000000   0.0000000
 NQMom=   31.3000000   0.0000000   0.0000000   0.0000000   0.0000000   0.0000000   0.0000000   0.0000000   0.0000000   0.0000000
 NMagM=    2.1063990   0.0000000   2.7928460   2.7928460   0.0000000   2.7928460   2.7928460   0.0000000   2.7928460   2.7928460
 AtZNuc=  35.0000000   8.0000000   1.0000000   1.0000000   8.0000000   1.0000000   1.0000000   8.0000000   1.0000000   1.0000000

  Atom        11          12          13          14          15          16          17          18          19          20
 IAtWgt=          16           1           1          16           1           1          16           1           1          16
 AtmWgt=  15.9949146   1.0078250   1.0078250  15.9949146   1.0078250   1.0078250  15.9949146   1.0078250   1.0078250  15.9949146
 NucSpn=           0           1           1           0           1           1           0           1           1           0
 AtZEff=   0.0000000   0.0000000   0.0000000   0.0000000   0.0000000   0.0000000   0.0000000   0.0000000   0.0000000   0.0000000
 NQMom=    0.0000000   0.0000000   0.0000000   0.0000000   0.0000000   0.0000000   0.0000000   0.0000000   0.0000000   0.0000000
 NMagM=    0.0000000   2.7928460   2.7928460   0.0000000   2.7928460   2.7928460   0.0000000   2.7928460   2.7928460   0.0000000
 AtZNuc=   8.0000000   1.0000000   1.0000000   8.0000000   1.0000000   1.0000000   8.0000000   1.0000000   1.0000000   8.0000000

  Atom        21          22          23          24          25          26          27          28          29          30
 IAtWgt=           1           1          16           1           1          16           1           1          16           1
 AtmWgt=   1.0078250   1.0078250  15.9949146   1.0078250   1.0078250  15.9949146   1.0078250   1.0078250  15.9949146   1.0078250
 NucSpn=           1           1           0           1           1           0           1           1           0           1
 AtZEff=   0.0000000   0.0000000   0.0000000   0.0000000   0.0000000   0.0000000   0.0000000   0.0000000   0.0000000   0.0000000
 NQMom=    0.0000000   0.0000000   0.0000000   0.0000000   0.0000000   0.0000000   0.0000000   0.0000000   0.0000000   0.0000000
 NMagM=    2.7928460   2.7928460   0.0000000   2.7928460   2.7928460   0.0000000   2.7928460   2.7928460   0.0000000   2.7928460
 AtZNuc=   1.0000000   1.0000000   8.0000000   1.0000000   1.0000000   8.0000000   1.0000000   1.0000000   8.0000000   1.0000000

  Atom        31          32          33          34          35          36          37          38          39          40
 IAtWgt=           1          16           1           1          16           1           1          16           1           1
 AtmWgt=   1.0078250  15.9949146   1.0078250   1.0078250  15.9949146   1.0078250   1.0078250  15.9949146   1.0078250   1.0078250
 NucSpn=           1           0           1           1           0           1           1           0           1           1
 AtZEff=   0.0000000   0.0000000   0.0000000   0.0000000   0.0000000   0.0000000   0.0000000   0.0000000   0.0000000   0.0000000
 NQMom=    0.0000000   0.0000000   0.0000000   0.0000000   0.0000000   0.0000000   0.0000000   0.0000000   0.0000000   0.0000000
 NMagM=    2.7928460   0.0000000   2.7928460   2.7928460   0.0000000   2.7928460   2.7928460   0.0000000   2.7928460   2.7928460
 AtZNuc=   1.0000000   8.0000000   1.0000000   1.0000000   8.0000000   1.0000000   1.0000000   8.0000000   1.0000000   1.0000000

  Atom        41          42          43          44          45          46          47          48          49          50
 IAtWgt=          16           1           1          16           1           1          16           1           1          16
 AtmWgt=  15.9949146   1.0078250   1.0078250  15.9949146   1.0078250   1.0078250  15.9949146   1.0078250   1.0078250  15.9949146
 NucSpn=           0           1           1           0           1           1           0           1           1           0
 AtZEff=   0.0000000   0.0000000   0.0000000   0.0000000   0.0000000   0.0000000   0.0000000   0.0000000   0.0000000   0.0000000
 NQMom=    0.0000000   0.0000000   0.0000000   0.0000000   0.0000000   0.0000000   0.0000000   0.0000000   0.0000000   0.0000000
 NMagM=    0.0000000   2.7928460   2.7928460   0.0000000   2.7928460   2.7928460   0.0000000   2.7928460   2.7928460   0.0000000
 AtZNuc=   8.0000000   1.0000000   1.0000000   8.0000000   1.0000000   1.0000000   8.0000000   1.0000000   1.0000000   8.0000000

  Atom        51          52          53          54          55          56          57          58          59          60
 IAtWgt=           1           1          16           1           1          16           1           1          16           1
 AtmWgt=   1.0078250   1.0078250  15.9949146   1.0078250   1.0078250  15.9949146   1.0078250   1.0078250  15.9949146   1.0078250
 NucSpn=           1           1           0           1           1           0           1           1           0           1
 AtZEff=   0.0000000   0.0000000   0.0000000   0.0000000   0.0000000   0.0000000   0.0000000   0.0000000   0.0000000   0.0000000
 NQMom=    0.0000000   0.0000000   0.0000000   0.0000000   0.0000000   0.0000000   0.0000000   0.0000000   0.0000000   0.0000000
 NMagM=    2.7928460   2.7928460   0.0000000   2.7928460   2.7928460   0.0000000   2.7928460   2.7928460   0.0000000   2.7928460
 AtZNuc=   1.0000000   1.0000000   8.0000000   1.0000000   1.0000000   8.0000000   1.0000000   1.0000000   8.0000000   1.0000000

  Atom        61          62          63          64          65          66          67          68          69          70
 IAtWgt=           1          16           1           1          16           1           1          16           1           1
 AtmWgt=   1.0078250  15.9949146   1.0078250   1.0078250  15.9949146   1.0078250   1.0078250  15.9949146   1.0078250   1.0078250
 NucSpn=           1           0           1           1           0           1           1           0           1           1
 AtZEff=   0.0000000   0.0000000   0.0000000   0.0000000   0.0000000   0.0000000   0.0000000   0.0000000   0.0000000   0.0000000
 NQMom=    0.0000000   0.0000000   0.0000000   0.0000000   0.0000000   0.0000000   0.0000000   0.0000000   0.0000000   0.0000000
 NMagM=    2.7928460   0.0000000   2.7928460   2.7928460   0.0000000   2.7928460   2.7928460   0.0000000   2.7928460   2.7928460
 AtZNuc=   1.0000000   8.0000000   1.0000000   1.0000000   8.0000000   1.0000000   1.0000000   8.0000000   1.0000000   1.0000000

  Atom        71          72          73          74          75          76          77          78          79          80
 IAtWgt=          16           1           1          16           1           1          16           1           1          16
 AtmWgt=  15.9949146   1.0078250   1.0078250  15.9949146   1.0078250   1.0078250  15.9949146   1.0078250   1.0078250  15.9949146
 NucSpn=           0           1           1           0           1           1           0           1           1           0
 AtZEff=   0.0000000   0.0000000   0.0000000   0.0000000   0.0000000   0.0000000   0.0000000   0.0000000   0.0000000   0.0000000
 NQMom=    0.0000000   0.0000000   0.0000000   0.0000000   0.0000000   0.0000000   0.0000000   0.0000000   0.0000000   0.0000000
 NMagM=    0.0000000   2.7928460   2.7928460   0.0000000   2.7928460   2.7928460   0.0000000   2.7928460   2.7928460   0.0000000
 AtZNuc=   8.0000000   1.0000000   1.0000000   8.0000000   1.0000000   1.0000000   8.0000000   1.0000000   1.0000000   8.0000000

  Atom        81          82          83          84          85          86          87          88          89          90
 IAtWgt=           1           1          16           1           1          16           1           1          16           1
 AtmWgt=   1.0078250   1.0078250  15.9949146   1.0078250   1.0078250  15.9949146   1.0078250   1.0078250  15.9949146   1.0078250
 NucSpn=           1           1           0           1           1           0           1           1           0           1
 AtZEff=   0.0000000   0.0000000   0.0000000   0.0000000   0.0000000   0.0000000   0.0000000   0.0000000   0.0000000   0.0000000
 NQMom=    0.0000000   0.0000000   0.0000000   0.0000000   0.0000000   0.0000000   0.0000000   0.0000000   0.0000000   0.0000000
 NMagM=    2.7928460   2.7928460   0.0000000   2.7928460   2.7928460   0.0000000   2.7928460   2.7928460   0.0000000   2.7928460
 AtZNuc=   1.0000000   1.0000000   8.0000000   1.0000000   1.0000000   8.0000000   1.0000000   1.0000000   8.0000000   1.0000000

  Atom        91          92          93          94          95          96          97          98          99         100
 IAtWgt=           1          16           1           1          16           1           1          16           1           1
 AtmWgt=   1.0078250  15.9949146   1.0078250   1.0078250  15.9949146   1.0078250   1.0078250  15.9949146   1.0078250   1.0078250
 NucSpn=           1           0           1           1           0           1           1           0           1           1
 AtZEff=   0.0000000   0.0000000   0.0000000   0.0000000   0.0000000   0.0000000   0.0000000   0.0000000   0.0000000   0.0000000
 NQMom=    0.0000000   0.0000000   0.0000000   0.0000000   0.0000000   0.0000000   0.0000000   0.0000000   0.0000000   0.0000000
 NMagM=    2.7928460   0.0000000   2.7928460   2.7928460   0.0000000   2.7928460   2.7928460   0.0000000   2.7928460   2.7928460
 AtZNuc=   1.0000000   8.0000000   1.0000000   1.0000000   8.0000000   1.0000000   1.0000000   8.0000000   1.0000000   1.0000000

  Atom       101         102         103         104         105         106         107         108         109         110
 IAtWgt=          16           1           1          16           1           1          16           1           1          16
 AtmWgt=  15.9949146   1.0078250   1.0078250  15.9949146   1.0078250   1.0078250  15.9949146   1.0078250   1.0078250  15.9949146
 NucSpn=           0           1           1           0           1           1           0           1           1           0
 AtZEff=   0.0000000   0.0000000   0.0000000   0.0000000   0.0000000   0.0000000   0.0000000   0.0000000   0.0000000   0.0000000
 NQMom=    0.0000000   0.0000000   0.0000000   0.0000000   0.0000000   0.0000000   0.0000000   0.0000000   0.0000000   0.0000000
 NMagM=    0.0000000   2.7928460   2.7928460   0.0000000   2.7928460   2.7928460   0.0000000   2.7928460   2.7928460   0.0000000
 AtZNuc=   8.0000000   1.0000000   1.0000000   8.0000000   1.0000000   1.0000000   8.0000000   1.0000000   1.0000000   8.0000000

  Atom       111         112         113         114         115         116         117         118         119         120
 IAtWgt=           1           1          16           1           1          16           1           1          16           1
 AtmWgt=   1.0078250   1.0078250  15.9949146   1.0078250   1.0078250  15.9949146   1.0078250   1.0078250  15.9949146   1.0078250
 NucSpn=           1           1           0           1           1           0           1           1           0           1
 AtZEff=   0.0000000   0.0000000   0.0000000   0.0000000   0.0000000   0.0000000   0.0000000   0.0000000   0.0000000   0.0000000
 NQMom=    0.0000000   0.0000000   0.0000000   0.0000000   0.0000000   0.0000000   0.0000000   0.0000000   0.0000000   0.0000000
 NMagM=    2.7928460   2.7928460   0.0000000   2.7928460   2.7928460   0.0000000   2.7928460   2.7928460   0.0000000   2.7928460
 AtZNuc=   1.0000000   1.0000000   8.0000000   1.0000000   1.0000000   8.0000000   1.0000000   1.0000000   8.0000000   1.0000000

  Atom       121         122         123         124         125         126         127         128         129         130
 IAtWgt=           1          16           1           1          16           1           1          16           1           1
 AtmWgt=   1.0078250  15.9949146   1.0078250   1.0078250  15.9949146   1.0078250   1.0078250  15.9949146   1.0078250   1.0078250
 NucSpn=           1           0           1           1           0           1           1           0           1           1
 AtZEff=   0.0000000   0.0000000   0.0000000   0.0000000   0.0000000   0.0000000   0.0000000   0.0000000   0.0000000   0.0000000
 NQMom=    0.0000000   0.0000000   0.0000000   0.0000000   0.0000000   0.0000000   0.0000000   0.0000000   0.0000000   0.0000000
 NMagM=    2.7928460   0.0000000   2.7928460   2.7928460   0.0000000   2.7928460   2.7928460   0.0000000   2.7928460   2.7928460
 AtZNuc=   1.0000000   8.0000000   1.0000000   1.0000000   8.0000000   1.0000000   1.0000000   8.0000000   1.0000000   1.0000000

  Atom       131         132         133         134         135         136         137         138         139         140
 IAtWgt=          16           1           1          16           1           1          16           1           1          16
 AtmWgt=  15.9949146   1.0078250   1.0078250  15.9949146   1.0078250   1.0078250  15.9949146   1.0078250   1.0078250  15.9949146
 NucSpn=           0           1           1           0           1           1           0           1           1           0
 AtZEff=   0.0000000   0.0000000   0.0000000   0.0000000   0.0000000   0.0000000   0.0000000   0.0000000   0.0000000   0.0000000
 NQMom=    0.0000000   0.0000000   0.0000000   0.0000000   0.0000000   0.0000000   0.0000000   0.0000000   0.0000000   0.0000000
 NMagM=    0.0000000   2.7928460   2.7928460   0.0000000   2.7928460   2.7928460   0.0000000   2.7928460   2.7928460   0.0000000
 AtZNuc=   8.0000000   1.0000000   1.0000000   8.0000000   1.0000000   1.0000000   8.0000000   1.0000000   1.0000000   8.0000000

  Atom       141         142         143         144         145         146         147         148         149         150
 IAtWgt=           1           1          16           1           1          16           1           1          16           1
 AtmWgt=   1.0078250   1.0078250  15.9949146   1.0078250   1.0078250  15.9949146   1.0078250   1.0078250  15.9949146   1.0078250
 NucSpn=           1           1           0           1           1           0           1           1           0           1
 AtZEff=   0.0000000   0.0000000   0.0000000   0.0000000   0.0000000   0.0000000   0.0000000   0.0000000   0.0000000   0.0000000
 NQMom=    0.0000000   0.0000000   0.0000000   0.0000000   0.0000000   0.0000000   0.0000000   0.0000000   0.0000000   0.0000000
 NMagM=    2.7928460   2.7928460   0.0000000   2.7928460   2.7928460   0.0000000   2.7928460   2.7928460   0.0000000   2.7928460
 AtZNuc=   1.0000000   1.0000000   8.0000000   1.0000000   1.0000000   8.0000000   1.0000000   1.0000000   8.0000000   1.0000000

  Atom       151         152         153         154         155         156         157         158         159         160
 IAtWgt=           1          16           1           1          16           1           1          16           1           1
 AtmWgt=   1.0078250  15.9949146   1.0078250   1.0078250  15.9949146   1.0078250   1.0078250  15.9949146   1.0078250   1.0078250
 NucSpn=           1           0           1           1           0           1           1           0           1           1
 AtZEff=   0.0000000   0.0000000   0.0000000   0.0000000   0.0000000   0.0000000   0.0000000   0.0000000   0.0000000   0.0000000
 NQMom=    0.0000000   0.0000000   0.0000000   0.0000000   0.0000000   0.0000000   0.0000000   0.0000000   0.0000000   0.0000000
 NMagM=    2.7928460   0.0000000   2.7928460   2.7928460   0.0000000   2.7928460   2.7928460   0.0000000   2.7928460   2.7928460
 AtZNuc=   1.0000000   8.0000000   1.0000000   1.0000000   8.0000000   1.0000000   1.0000000   8.0000000   1.0000000   1.0000000

  Atom       161         162         163         164         165         166         167         168         169         170
 IAtWgt=          16           1           1          16           1           1          16           1           1          16
 AtmWgt=  15.9949146   1.0078250   1.0078250  15.9949146   1.0078250   1.0078250  15.9949146   1.0078250   1.0078250  15.9949146
 NucSpn=           0           1           1           0           1           1           0           1           1           0
 AtZEff=   0.0000000   0.0000000   0.0000000   0.0000000   0.0000000   0.0000000   0.0000000   0.0000000   0.0000000   0.0000000
 NQMom=    0.0000000   0.0000000   0.0000000   0.0000000   0.0000000   0.0000000   0.0000000   0.0000000   0.0000000   0.0000000
 NMagM=    0.0000000   2.7928460   2.7928460   0.0000000   2.7928460   2.7928460   0.0000000   2.7928460   2.7928460   0.0000000
 AtZNuc=   8.0000000   1.0000000   1.0000000   8.0000000   1.0000000   1.0000000   8.0000000   1.0000000   1.0000000   8.0000000

  Atom       171         172         173         174         175         176         177         178         179         180
 IAtWgt=           1           1          16           1           1          16           1           1          16           1
 AtmWgt=   1.0078250   1.0078250  15.9949146   1.0078250   1.0078250  15.9949146   1.0078250   1.0078250  15.9949146   1.0078250
 NucSpn=           1           1           0           1           1           0           1           1           0           1
 AtZEff=   0.0000000   0.0000000   0.0000000   0.0000000   0.0000000   0.0000000   0.0000000   0.0000000   0.0000000   0.0000000
 NQMom=    0.0000000   0.0000000   0.0000000   0.0000000   0.0000000   0.0000000   0.0000000   0.0000000   0.0000000   0.0000000
 NMagM=    2.7928460   2.7928460   0.0000000   2.7928460   2.7928460   0.0000000   2.7928460   2.7928460   0.0000000   2.7928460
 AtZNuc=   1.0000000   1.0000000   8.0000000   1.0000000   1.0000000   8.0000000   1.0000000   1.0000000   8.0000000   1.0000000

  Atom       181         182         183         184         185         186         187         188         189         190
 IAtWgt=           1          16           1           1          16           1           1          16           1           1
 AtmWgt=   1.0078250  15.9949146   1.0078250   1.0078250  15.9949146   1.0078250   1.0078250  15.9949146   1.0078250   1.0078250
 NucSpn=           1           0           1           1           0           1           1           0           1           1
 AtZEff=   0.0000000   0.0000000   0.0000000   0.0000000   0.0000000   0.0000000   0.0000000   0.0000000   0.0000000   0.0000000
 NQMom=    0.0000000   0.0000000   0.0000000   0.0000000   0.0000000   0.0000000   0.0000000   0.0000000   0.0000000   0.0000000
 NMagM=    2.7928460   0.0000000   2.7928460   2.7928460   0.0000000   2.7928460   2.7928460   0.0000000   2.7928460   2.7928460
 AtZNuc=   1.0000000   8.0000000   1.0000000   1.0000000   8.0000000   1.0000000   1.0000000   8.0000000   1.0000000   1.0000000

  Atom       191         192         193         194         195         196         197         198         199         200
 IAtWgt=          16           1           1          16           1           1          16           1           1          16
 AtmWgt=  15.9949146   1.0078250   1.0078250  15.9949146   1.0078250   1.0078250  15.9949146   1.0078250   1.0078250  15.9949146
 NucSpn=           0           1           1           0           1           1           0           1           1           0
 AtZEff=   0.0000000   0.0000000   0.0000000   0.0000000   0.0000000   0.0000000   0.0000000   0.0000000   0.0000000   0.0000000
 NQMom=    0.0000000   0.0000000   0.0000000   0.0000000   0.0000000   0.0000000   0.0000000   0.0000000   0.0000000   0.0000000
 NMagM=    0.0000000   2.7928460   2.7928460   0.0000000   2.7928460   2.7928460   0.0000000   2.7928460   2.7928460   0.0000000
 AtZNuc=   8.0000000   1.0000000   1.0000000   8.0000000   1.0000000   1.0000000   8.0000000   1.0000000   1.0000000   8.0000000

  Atom       201         202         203         204         205         206         207         208         209         210
 IAtWgt=           1           1          16           1           1          16           1           1          16           1
 AtmWgt=   1.0078250   1.0078250  15.9949146   1.0078250   1.0078250  15.9949146   1.0078250   1.0078250  15.9949146   1.0078250
 NucSpn=           1           1           0           1           1           0           1           1           0           1
 AtZEff=   0.0000000   0.0000000   0.0000000   0.0000000   0.0000000   0.0000000   0.0000000   0.0000000   0.0000000   0.0000000
 NQMom=    0.0000000   0.0000000   0.0000000   0.0000000   0.0000000   0.0000000   0.0000000   0.0000000   0.0000000   0.0000000
 NMagM=    2.7928460   2.7928460   0.0000000   2.7928460   2.7928460   0.0000000   2.7928460   2.7928460   0.0000000   2.7928460
 AtZNuc=   1.0000000   1.0000000   8.0000000   1.0000000   1.0000000   8.0000000   1.0000000   1.0000000   8.0000000   1.0000000

  Atom       211         212         213         214         215         216         217         218         219         220
 IAtWgt=           1          16           1           1          16           1           1          16           1           1
 AtmWgt=   1.0078250  15.9949146   1.0078250   1.0078250  15.9949146   1.0078250   1.0078250  15.9949146   1.0078250   1.0078250
 NucSpn=           1           0           1           1           0           1           1           0           1           1
 AtZEff=   0.0000000   0.0000000   0.0000000   0.0000000   0.0000000   0.0000000   0.0000000   0.0000000   0.0000000   0.0000000
 NQMom=    0.0000000   0.0000000   0.0000000   0.0000000   0.0000000   0.0000000   0.0000000   0.0000000   0.0000000   0.0000000
 NMagM=    2.7928460   0.0000000   2.7928460   2.7928460   0.0000000   2.7928460   2.7928460   0.0000000   2.7928460   2.7928460
 AtZNuc=   1.0000000   8.0000000   1.0000000   1.0000000   8.0000000   1.0000000   1.0000000   8.0000000   1.0000000   1.0000000

  Atom       221         222         223         224         225         226         227         228         229         230
 IAtWgt=          16           1           1          16           1           1          16           1           1          16
 AtmWgt=  15.9949146   1.0078250   1.0078250  15.9949146   1.0078250   1.0078250  15.9949146   1.0078250   1.0078250  15.9949146
 NucSpn=           0           1           1           0           1           1           0           1           1           0
 AtZEff=   0.0000000   0.0000000   0.0000000   0.0000000   0.0000000   0.0000000   0.0000000   0.0000000   0.0000000   0.0000000
 NQMom=    0.0000000   0.0000000   0.0000000   0.0000000   0.0000000   0.0000000   0.0000000   0.0000000   0.0000000   0.0000000
 NMagM=    0.0000000   2.7928460   2.7928460   0.0000000   2.7928460   2.7928460   0.0000000   2.7928460   2.7928460   0.0000000
 AtZNuc=   8.0000000   1.0000000   1.0000000   8.0000000   1.0000000   1.0000000   8.0000000   1.0000000   1.0000000   8.0000000

  Atom       231         232         233         234         235         236         237         238         239         240
 IAtWgt=           1           1          16           1           1          16           1           1          16           1
 AtmWgt=   1.0078250   1.0078250  15.9949146   1.0078250   1.0078250  15.9949146   1.0078250   1.0078250  15.9949146   1.0078250
 NucSpn=           1           1           0           1           1           0           1           1           0           1
 AtZEff=   0.0000000   0.0000000   0.0000000   0.0000000   0.0000000   0.0000000   0.0000000   0.0000000   0.0000000   0.0000000
 NQMom=    0.0000000   0.0000000   0.0000000   0.0000000   0.0000000   0.0000000   0.0000000   0.0000000   0.0000000   0.0000000
 NMagM=    2.7928460   2.7928460   0.0000000   2.7928460   2.7928460   0.0000000   2.7928460   2.7928460   0.0000000   2.7928460
 AtZNuc=   1.0000000   1.0000000   8.0000000   1.0000000   1.0000000   8.0000000   1.0000000   1.0000000   8.0000000   1.0000000

  Atom       241         242         243         244         245         246         247         248         249         250
 IAtWgt=           1          16           1           1          16           1           1          16           1           1
 AtmWgt=   1.0078250  15.9949146   1.0078250   1.0078250  15.9949146   1.0078250   1.0078250  15.9949146   1.0078250   1.0078250
 NucSpn=           1           0           1           1           0           1           1           0           1           1
 AtZEff=   0.0000000   0.0000000   0.0000000   0.0000000   0.0000000   0.0000000   0.0000000   0.0000000   0.0000000   0.0000000
 NQMom=    0.0000000   0.0000000   0.0000000   0.0000000   0.0000000   0.0000000   0.0000000   0.0000000   0.0000000   0.0000000
 NMagM=    2.7928460   0.0000000   2.7928460   2.7928460   0.0000000   2.7928460   2.7928460   0.0000000   2.7928460   2.7928460
 AtZNuc=   1.0000000   8.0000000   1.0000000   1.0000000   8.0000000   1.0000000   1.0000000   8.0000000   1.0000000   1.0000000

  Atom       251         252         253         254         255         256         257         258         259         260
 IAtWgt=          16           1           1          16           1           1          16           1           1          16
 AtmWgt=  15.9949146   1.0078250   1.0078250  15.9949146   1.0078250   1.0078250  15.9949146   1.0078250   1.0078250  15.9949146
 NucSpn=           0           1           1           0           1           1           0           1           1           0
 AtZEff=   0.0000000   0.0000000   0.0000000   0.0000000   0.0000000   0.0000000   0.0000000   0.0000000   0.0000000   0.0000000
 NQMom=    0.0000000   0.0000000   0.0000000   0.0000000   0.0000000   0.0000000   0.0000000   0.0000000   0.0000000   0.0000000
 NMagM=    0.0000000   2.7928460   2.7928460   0.0000000   2.7928460   2.7928460   0.0000000   2.7928460   2.7928460   0.0000000
 AtZNuc=   8.0000000   1.0000000   1.0000000   8.0000000   1.0000000   1.0000000   8.0000000   1.0000000   1.0000000   8.0000000

  Atom       261         262         263         264         265         266         267         268         269         270
 IAtWgt=           1           1          16           1           1          16           1           1          16           1
 AtmWgt=   1.0078250   1.0078250  15.9949146   1.0078250   1.0078250  15.9949146   1.0078250   1.0078250  15.9949146   1.0078250
 NucSpn=           1           1           0           1           1           0           1           1           0           1
 AtZEff=   0.0000000   0.0000000   0.0000000   0.0000000   0.0000000   0.0000000   0.0000000   0.0000000   0.0000000   0.0000000
 NQMom=    0.0000000   0.0000000   0.0000000   0.0000000   0.0000000   0.0000000   0.0000000   0.0000000   0.0000000   0.0000000
 NMagM=    2.7928460   2.7928460   0.0000000   2.7928460   2.7928460   0.0000000   2.7928460   2.7928460   0.0000000   2.7928460
 AtZNuc=   1.0000000   1.0000000   8.0000000   1.0000000   1.0000000   8.0000000   1.0000000   1.0000000   8.0000000   1.0000000

  Atom       271         272         273         274         275         276         277         278         279         280
 IAtWgt=           1          16           1           1          16           1           1          16           1           1
 AtmWgt=   1.0078250  15.9949146   1.0078250   1.0078250  15.9949146   1.0078250   1.0078250  15.9949146   1.0078250   1.0078250
 NucSpn=           1           0           1           1           0           1           1           0           1           1
 AtZEff=   0.0000000   0.0000000   0.0000000   0.0000000   0.0000000   0.0000000   0.0000000   0.0000000   0.0000000   0.0000000
 NQMom=    0.0000000   0.0000000   0.0000000   0.0000000   0.0000000   0.0000000   0.0000000   0.0000000   0.0000000   0.0000000
 NMagM=    2.7928460   0.0000000   2.7928460   2.7928460   0.0000000   2.7928460   2.7928460   0.0000000   2.7928460   2.7928460
 AtZNuc=   1.0000000   8.0000000   1.0000000   1.0000000   8.0000000   1.0000000   1.0000000   8.0000000   1.0000000   1.0000000

  Atom       281         282         283         284         285         286         287         288         289         290
 IAtWgt=          16           1           1          16           1           1          16           1           1          16
 AtmWgt=  15.9949146   1.0078250   1.0078250  15.9949146   1.0078250   1.0078250  15.9949146   1.0078250   1.0078250  15.9949146
 NucSpn=           0           1           1           0           1           1           0           1           1           0
 AtZEff=   0.0000000   0.0000000   0.0000000   0.0000000   0.0000000   0.0000000   0.0000000   0.0000000   0.0000000   0.0000000
 NQMom=    0.0000000   0.0000000   0.0000000   0.0000000   0.0000000   0.0000000   0.0000000   0.0000000   0.0000000   0.0000000
 NMagM=    0.0000000   2.7928460   2.7928460   0.0000000   2.7928460   2.7928460   0.0000000   2.7928460   2.7928460   0.0000000
 AtZNuc=   8.0000000   1.0000000   1.0000000   8.0000000   1.0000000   1.0000000   8.0000000   1.0000000   1.0000000   8.0000000

  Atom       291         292         293         294         295         296         297         298         299         300
 IAtWgt=           1           1          16           1           1          16           1           1          16           1
 AtmWgt=   1.0078250   1.0078250  15.9949146   1.0078250   1.0078250  15.9949146   1.0078250   1.0078250  15.9949146   1.0078250
 NucSpn=           1           1           0           1           1           0           1           1           0           1
 AtZEff=   0.0000000   0.0000000   0.0000000   0.0000000   0.0000000   0.0000000   0.0000000   0.0000000   0.0000000   0.0000000
 NQMom=    0.0000000   0.0000000   0.0000000   0.0000000   0.0000000   0.0000000   0.0000000   0.0000000   0.0000000   0.0000000
 NMagM=    2.7928460   2.7928460   0.0000000   2.7928460   2.7928460   0.0000000   2.7928460   2.7928460   0.0000000   2.7928460
 AtZNuc=   1.0000000   1.0000000   8.0000000   1.0000000   1.0000000   8.0000000   1.0000000   1.0000000   8.0000000   1.0000000

  Atom       301         302         303         304         305         306         307         308         309         310
 IAtWgt=           1          16           1           1          16           1           1          16           1           1
 AtmWgt=   1.0078250  15.9949146   1.0078250   1.0078250  15.9949146   1.0078250   1.0078250  15.9949146   1.0078250   1.0078250
 NucSpn=           1           0           1           1           0           1           1           0           1           1
 AtZEff=   0.0000000   0.0000000   0.0000000   0.0000000   0.0000000   0.0000000   0.0000000   0.0000000   0.0000000   0.0000000
 NQMom=    0.0000000   0.0000000   0.0000000   0.0000000   0.0000000   0.0000000   0.0000000   0.0000000   0.0000000   0.0000000
 NMagM=    2.7928460   0.0000000   2.7928460   2.7928460   0.0000000   2.7928460   2.7928460   0.0000000   2.7928460   2.7928460
 AtZNuc=   1.0000000   8.0000000   1.0000000   1.0000000   8.0000000   1.0000000   1.0000000   8.0000000   1.0000000   1.0000000

  Atom       311         312         313         314         315         316         317         318         319         320
 IAtWgt=          16           1           1          16           1           1          16           1           1          16
 AtmWgt=  15.9949146   1.0078250   1.0078250  15.9949146   1.0078250   1.0078250  15.9949146   1.0078250   1.0078250  15.9949146
 NucSpn=           0           1           1           0           1           1           0           1           1           0
 AtZEff=   0.0000000   0.0000000   0.0000000   0.0000000   0.0000000   0.0000000   0.0000000   0.0000000   0.0000000   0.0000000
 NQMom=    0.0000000   0.0000000   0.0000000   0.0000000   0.0000000   0.0000000   0.0000000   0.0000000   0.0000000   0.0000000
 NMagM=    0.0000000   2.7928460   2.7928460   0.0000000   2.7928460   2.7928460   0.0000000   2.7928460   2.7928460   0.0000000
 AtZNuc=   8.0000000   1.0000000   1.0000000   8.0000000   1.0000000   1.0000000   8.0000000   1.0000000   1.0000000   8.0000000

  Atom       321         322         323         324         325         326         327         328         329         330
 IAtWgt=           1           1          16           1           1          16           1           1          16           1
 AtmWgt=   1.0078250   1.0078250  15.9949146   1.0078250   1.0078250  15.9949146   1.0078250   1.0078250  15.9949146   1.0078250
 NucSpn=           1           1           0           1           1           0           1           1           0           1
 AtZEff=   0.0000000   0.0000000   0.0000000   0.0000000   0.0000000   0.0000000   0.0000000   0.0000000   0.0000000   0.0000000
 NQMom=    0.0000000   0.0000000   0.0000000   0.0000000   0.0000000   0.0000000   0.0000000   0.0000000   0.0000000   0.0000000
 NMagM=    2.7928460   2.7928460   0.0000000   2.7928460   2.7928460   0.0000000   2.7928460   2.7928460   0.0000000   2.7928460
 AtZNuc=   1.0000000   1.0000000   8.0000000   1.0000000   1.0000000   8.0000000   1.0000000   1.0000000   8.0000000   1.0000000

  Atom       331         332         333         334         335         336         337         338         339         340
 IAtWgt=           1          16           1           1          16           1           1          16           1           1
 AtmWgt=   1.0078250  15.9949146   1.0078250   1.0078250  15.9949146   1.0078250   1.0078250  15.9949146   1.0078250   1.0078250
 NucSpn=           1           0           1           1           0           1           1           0           1           1
 AtZEff=   0.0000000   0.0000000   0.0000000   0.0000000   0.0000000   0.0000000   0.0000000   0.0000000   0.0000000   0.0000000
 NQMom=    0.0000000   0.0000000   0.0000000   0.0000000   0.0000000   0.0000000   0.0000000   0.0000000   0.0000000   0.0000000
 NMagM=    2.7928460   0.0000000   2.7928460   2.7928460   0.0000000   2.7928460   2.7928460   0.0000000   2.7928460   2.7928460
 AtZNuc=   1.0000000   8.0000000   1.0000000   1.0000000   8.0000000   1.0000000   1.0000000   8.0000000   1.0000000   1.0000000

  Atom       341         342         343         344         345         346         347         348         349         350
 IAtWgt=          16           1           1          16           1           1          16           1           1          16
 AtmWgt=  15.9949146   1.0078250   1.0078250  15.9949146   1.0078250   1.0078250  15.9949146   1.0078250   1.0078250  15.9949146
 NucSpn=           0           1           1           0           1           1           0           1           1           0
 AtZEff=   0.0000000   0.0000000   0.0000000   0.0000000   0.0000000   0.0000000   0.0000000   0.0000000   0.0000000   0.0000000
 NQMom=    0.0000000   0.0000000   0.0000000   0.0000000   0.0000000   0.0000000   0.0000000   0.0000000   0.0000000   0.0000000
 NMagM=    0.0000000   2.7928460   2.7928460   0.0000000   2.7928460   2.7928460   0.0000000   2.7928460   2.7928460   0.0000000
 AtZNuc=   8.0000000   1.0000000   1.0000000   8.0000000   1.0000000   1.0000000   8.0000000   1.0000000   1.0000000   8.0000000

  Atom       351         352         353         354         355         356         357         358         359         360
 IAtWgt=           1           1          16           1           1          16           1           1          16           1
 AtmWgt=   1.0078250   1.0078250  15.9949146   1.0078250   1.0078250  15.9949146   1.0078250   1.0078250  15.9949146   1.0078250
 NucSpn=           1           1           0           1           1           0           1           1           0           1
 AtZEff=   0.0000000   0.0000000   0.0000000   0.0000000   0.0000000   0.0000000   0.0000000   0.0000000   0.0000000   0.0000000
 NQMom=    0.0000000   0.0000000   0.0000000   0.0000000   0.0000000   0.0000000   0.0000000   0.0000000   0.0000000   0.0000000
 NMagM=    2.7928460   2.7928460   0.0000000   2.7928460   2.7928460   0.0000000   2.7928460   2.7928460   0.0000000   2.7928460
 AtZNuc=   1.0000000   1.0000000   8.0000000   1.0000000   1.0000000   8.0000000   1.0000000   1.0000000   8.0000000   1.0000000

  Atom       361         362         363         364         365         366         367         368         369         370
 IAtWgt=           1          16           1           1          16           1           1          16           1           1
 AtmWgt=   1.0078250  15.9949146   1.0078250   1.0078250  15.9949146   1.0078250   1.0078250  15.9949146   1.0078250   1.0078250
 NucSpn=           1           0           1           1           0           1           1           0           1           1
 AtZEff=   0.0000000   0.0000000   0.0000000   0.0000000   0.0000000   0.0000000   0.0000000   0.0000000   0.0000000   0.0000000
 NQMom=    0.0000000   0.0000000   0.0000000   0.0000000   0.0000000   0.0000000   0.0000000   0.0000000   0.0000000   0.0000000
 NMagM=    2.7928460   0.0000000   2.7928460   2.7928460   0.0000000   2.7928460   2.7928460   0.0000000   2.7928460   2.7928460
 AtZNuc=   1.0000000   8.0000000   1.0000000   1.0000000   8.0000000   1.0000000   1.0000000   8.0000000   1.0000000   1.0000000

  Atom       371         372         373         374         375         376         377         378         379         380
 IAtWgt=          16           1           1          16           1           1          16           1           1          16
 AtmWgt=  15.9949146   1.0078250   1.0078250  15.9949146   1.0078250   1.0078250  15.9949146   1.0078250   1.0078250  15.9949146
 NucSpn=           0           1           1           0           1           1           0           1           1           0
 AtZEff=   0.0000000   0.0000000   0.0000000   0.0000000   0.0000000   0.0000000   0.0000000   0.0000000   0.0000000   0.0000000
 NQMom=    0.0000000   0.0000000   0.0000000   0.0000000   0.0000000   0.0000000   0.0000000   0.0000000   0.0000000   0.0000000
 NMagM=    0.0000000   2.7928460   2.7928460   0.0000000   2.7928460   2.7928460   0.0000000   2.7928460   2.7928460   0.0000000
 AtZNuc=   8.0000000   1.0000000   1.0000000   8.0000000   1.0000000   1.0000000   8.0000000   1.0000000   1.0000000   8.0000000

  Atom       381         382         383         384         385
 IAtWgt=           1           1          16           1           1
 AtmWgt=   1.0078250   1.0078250  15.9949146   1.0078250   1.0078250
 NucSpn=           1           1           0           1           1
 AtZEff=   0.0000000   0.0000000   0.0000000   0.0000000   0.0000000
 NQMom=    0.0000000   0.0000000   0.0000000   0.0000000   0.0000000
 NMagM=    2.7928460   2.7928460   0.0000000   2.7928460   2.7928460
 AtZNuc=   1.0000000   1.0000000   8.0000000   1.0000000   1.0000000
 Leave Link  101 at Sun May  6 03:44:17 2018, MaxMem= 14763950080 cpu:        33.4
 (Enter /cm/shared/gaussian/g09.e01/intel64-sandybridge/g09/l103.exe)

 GradGradGradGradGradGradGradGradGradGradGradGradGradGradGradGradGradGrad
 Berny optimization.
 Initialization pass.
 Trust Radius=3.00D-01 FncErr=1.00D-07 GrdErr=1.00D-07
 Number of steps in this run=      2 maximum allowed number of steps=      2.
 GradGradGradGradGradGradGradGradGradGradGradGradGradGradGradGradGradGrad

 Leave Link  103 at Sun May  6 03:44:17 2018, MaxMem= 14763950080 cpu:         3.8
 (Enter /cm/shared/gaussian/g09.e01/intel64-sandybridge/g09/l202.exe)
 Symmetry turned off by external request.
 Stoichiometry    BrH256O128(1-)
 Framework group  C1[X(BrH256O128)]
 Deg. of freedom  1149
 Full point group                 C1      NOp   1
                          Input orientation:                          
 ---------------------------------------------------------------------
 Center     Atomic      Atomic             Coordinates (Angstroms)
 Number     Number       Type             X           Y           Z
 ---------------------------------------------------------------------
      1         35           0       20.000000   20.000000   20.000000
      2          8           0       20.160000   22.970000   20.910000
      3          1           0       20.080000   22.030000   20.770000
      4          1           0       21.020000   23.190000   20.560000
      5          8           0       17.480000   18.440000   18.890000
      6          1           0       18.260000   18.940000   19.140000
      7          1           0       17.300000   17.880000   19.650000
      8          8           0       20.600000   17.510000   17.710000
      9          1           0       20.530000   16.660000   18.140000
     10          1           0       20.390000   18.140000   18.400000
     11          8           0       17.040000   20.940000   21.400000
     12          1           0       16.780000   20.020000   21.510000
     13          1           0       17.930000   20.890000   21.060000
     14          8           0       19.500000   21.620000   16.920000
     15          1           0       18.550000   21.780000   16.950000
     16          1           0       19.680000   21.140000   17.730000
     17          8           0       23.210000   19.190000   19.120000
     18          1           0       23.310000   19.960000   18.560000
     19          1           0       22.520000   19.430000   19.730000
     20          8           0       20.190000   18.410000   23.450000
     21          1           0       20.970000   18.950000   23.570000
     22          1           0       19.910000   18.590000   22.560000
     23          8           0       22.230000   20.070000   22.930000
     24          1           0       22.620000   20.880000   22.620000
     25          1           0       22.250000   19.480000   22.170000
     26          8           0       20.640000   15.990000   20.000000
     27          1           0       20.440000   15.560000   20.830000
     28          1           0       20.940000   16.860000   20.240000
     29          8           0       22.510000   17.620000   21.350000
     30          1           0       22.960000   16.790000   21.530000
     31          1           0       22.840000   17.870000   20.480000
     32          8           0       20.350000   22.280000   23.770000
     33          1           0       20.820000   21.450000   23.830000
     34          1           0       20.470000   22.560000   22.860000
     35          8           0       17.050000   18.230000   21.810000
     36          1           0       16.220000   18.080000   22.260000
     37          1           0       17.600000   17.480000   22.070000
     38          8           0       21.840000   19.190000   15.910000
     39          1           0       21.380000   18.480000   16.360000
     40          1           0       21.630000   19.970000   16.410000
     41          8           0       16.290000   20.630000   17.930000
     42          1           0       16.260000   20.540000   16.980000
     43          1           0       16.410000   19.730000   18.250000
     44          8           0       16.650000   22.760000   19.300000
     45          1           0       16.350000   22.340000   20.110000
     46          1           0       16.770000   22.030000   18.690000
     47          8           0       23.300000   22.110000   21.550000
     48          1           0       23.370000   22.990000   21.930000
     49          1           0       23.310000   22.250000   20.610000
     50          8           0       21.120000   23.720000   17.600000
     51          1           0       21.030000   24.390000   16.920000
     52          1           0       20.570000   22.990000   17.300000
     53          8           0       17.900000   24.260000   21.330000
     54          1           0       18.750000   23.820000   21.280000
     55          1           0       17.410000   23.940000   20.570000
     56          8           0       23.320000   21.310000   17.290000
     57          1           0       23.190000   22.110000   17.810000
     58          1           0       23.280000   21.610000   16.380000
     59          8           0       17.020000   17.430000   16.260000
     60          1           0       16.790000   18.190000   15.730000
     61          1           0       17.500000   17.780000   17.000000
     62          8           0       23.300000   23.280000   19.160000
     63          1           0       23.990000   23.880000   18.870000
     64          1           0       22.520000   23.570000   18.680000
     65          8           0       23.890000   16.670000   17.560000
     66          1           0       24.680000   16.760000   18.100000
     67          1           0       23.530000   17.550000   17.510000
     68          8           0       18.710000   19.950000   25.590000
     69          1           0       18.870000   19.410000   24.820000
     70          1           0       18.480000   20.810000   25.240000
     71          8           0       20.810000   25.840000   20.880000
     72          1           0       20.280000   25.100000   20.590000
     73          1           0       20.350000   26.160000   21.660000
     74          8           0       19.990000   21.750000   14.010000
     75          1           0       19.700000   21.700000   14.920000
     76          1           0       20.830000   21.290000   14.010000
     77          8           0       21.800000   15.430000   16.190000
     78          1           0       22.000000   15.950000   16.960000
     79          1           0       22.660000   15.170000   15.850000
     80          8           0       15.070000   21.900000   23.620000
     81          1           0       14.480000   21.830000   22.870000
     82          1           0       15.930000   21.680000   23.260000
     83          8           0       20.260000   15.910000   25.000000
     84          1           0       21.060000   15.430000   24.780000
     85          1           0       20.320000   16.730000   24.520000
     86          8           0       24.860000   19.200000   15.710000
     87          1           0       25.230000   20.050000   15.480000
     88          1           0       24.040000   19.410000   16.170000
     89          8           0       18.030000   15.560000   23.020000
     90          1           0       17.650000   15.290000   23.860000
     91          1           0       18.970000   15.420000   23.120000
     92          8           0       21.290000   13.440000   18.800000
     93          1           0       21.170000   14.240000   19.320000
     94          1           0       22.200000   13.480000   18.500000
     95          8           0       20.570000   14.550000   22.240000
     96          1           0       19.910000   13.940000   21.910000
     97          1           0       21.130000   14.020000   22.810000
     98          8           0       19.560000   16.230000   14.630000
     99          1           0       19.060000   16.310000   15.430000
    100          1           0       20.450000   16.010000   14.920000
    101          8           0       16.890000   14.900000   19.650000
    102          1           0       16.590000   15.140000   20.530000
    103          1           0       17.700000   14.410000   19.800000
    104          8           0       22.530000   20.740000   13.820000
    105          1           0       23.280000   20.310000   13.410000
    106          1           0       22.170000   20.070000   14.420000
    107          8           0       16.030000   23.960000   16.920000
    108          1           0       15.820000   23.710000   17.830000
    109          1           0       16.880000   24.390000   16.980000
    110          8           0       16.330000   20.060000   15.250000
    111          1           0       15.710000   19.560000   14.720000
    112          1           0       16.510000   20.840000   14.720000
    113          8           0       23.180000   17.660000   25.330000
    114          1           0       23.180000   17.380000   24.420000
    115          1           0       23.600000   16.940000   25.800000
    116          8           0       13.980000   21.620000   20.740000
    117          1           0       13.740000   21.740000   19.820000
    118          1           0       13.900000   20.680000   20.890000
    119          8           0       26.620000   18.940000   22.520000
    120          1           0       27.270000   19.000000   21.820000
    121          1           0       25.830000   19.330000   22.150000
    122          8           0       21.500000   20.060000   26.770000
    123          1           0       20.900000   19.340000   26.930000
    124          1           0       21.940000   19.830000   25.950000
    125          8           0       24.000000   15.480000   21.780000
    126          1           0       24.250000   14.670000   21.330000
    127          1           0       24.830000   15.910000   21.980000
    128          8           0       23.590000   24.570000   22.670000
    129          1           0       23.330000   25.160000   23.380000
    130          1           0       24.280000   25.040000   22.200000
    131          8           0       24.310000   22.860000   24.750000
    132          1           0       24.030000   23.140000   23.880000
    133          1           0       24.250000   21.910000   24.730000
    134          8           0       21.700000   23.970000   25.830000
    135          1           0       22.480000   23.430000   25.730000
    136          1           0       21.030000   23.530000   25.300000
    137          8           0       24.550000   20.070000   25.610000
    138          1           0       24.720000   19.570000   26.410000
    139          1           0       23.900000   19.550000   25.140000
    140          8           0       18.090000   25.380000   16.550000
    141          1           0       17.830000   26.100000   15.980000
    142          1           0       18.930000   25.650000   16.930000
    143          8           0       17.690000   26.520000   22.880000
    144          1           0       18.580000   26.610000   23.220000
    145          1           0       17.670000   25.650000   22.470000
    146          8           0       16.120000   14.760000   17.140000
    147          1           0       16.140000   15.010000   18.070000
    148          1           0       16.380000   15.550000   16.670000
    149          8           0       22.440000   26.830000   18.970000
    150          1           0       21.590000   26.880000   18.540000
    151          1           0       22.280000   26.320000   19.770000
    152          8           0       14.630000   24.330000   21.450000
    153          1           0       15.070000   24.570000   20.640000
    154          1           0       14.140000   23.540000   21.230000
    155          8           0       19.880000   26.880000   17.930000
    156          1           0       19.370000   26.610000   18.700000
    157          1           0       19.700000   27.820000   17.840000
    158          8           0       13.330000   18.690000   20.440000
    159          1           0       13.480000   17.900000   19.920000
    160          1           0       12.620000   18.450000   21.040000
    161          8           0       16.240000   22.840000   14.390000
    162          1           0       16.100000   23.150000   15.290000
    163          1           0       16.990000   23.340000   14.080000
    164          8           0       23.060000   14.850000   24.270000
    165          1           0       22.490000   14.080000   24.370000
    166          1           0       23.270000   14.880000   23.340000
    167          8           0       14.660000   17.240000   23.510000
    168          1           0       14.240000   16.920000   22.710000
    169          1           0       14.690000   16.480000   24.090000
    170          8           0       27.600000   20.450000   20.100000
    171          1           0       26.930000   20.550000   19.430000
    172          1           0       28.300000   19.950000   19.680000
    173          8           0       12.940000   21.280000   18.150000
    174          1           0       13.230000   20.370000   18.110000
    175          1           0       13.080000   21.610000   17.270000
    176          8           0       24.090000   16.610000   14.460000
    177          1           0       23.580000   17.020000   13.750000
    178          1           0       24.280000   17.330000   15.060000
    179          8           0       16.180000   23.580000   25.520000
    180          1           0       16.170000   23.030000   26.300000
    181          1           0       15.760000   23.050000   24.840000
    182          8           0       18.760000   25.120000   25.690000
    183          1           0       18.170000   24.560000   25.180000
    184          1           0       18.950000   24.620000   26.480000
    185          8           0       18.000000   27.250000   19.960000
    186          1           0       17.250000   26.960000   19.450000
    187          1           0       17.920000   26.790000   20.800000
    188          8           0       24.510000   13.920000   19.270000
    189          1           0       24.450000   13.770000   18.330000
    190          1           0       24.960000   14.770000   19.350000
    191          8           0       14.660000   19.010000   25.940000
    192          1           0       14.840000   18.870000   25.010000
    193          1           0       15.410000   18.610000   26.390000
    194          8           0       16.450000   16.460000   13.500000
    195          1           0       15.700000   17.010000   13.690000
    196          1           0       16.970000   16.470000   14.300000
    197          8           0       20.600000   16.960000   27.270000
    198          1           0       20.560000   16.480000   26.440000
    199          1           0       21.370000   16.610000   27.710000
    200          8           0       27.050000   17.790000   17.020000
    201          1           0       27.820000   18.200000   16.630000
    202          1           0       26.310000   18.230000   16.600000
    203          8           0       17.020000   18.710000   27.500000
    204          1           0       17.640000   19.190000   26.960000
    205          1           0       17.520000   18.430000   28.270000
    206          8           0       26.240000   16.170000   18.960000
    207          1           0       26.900000   16.660000   18.460000
[...]
   Z335      26.07822   0.00286   0.00000   0.00200   0.00321  26.08143
   X336      49.49193  -0.01069   0.00000  -0.00905  -0.00852  49.48340
   Y336      35.20560  -0.00027   0.00000  -0.00332  -0.00465  35.20095
   Z336      26.53175   0.00197   0.00000   0.00090   0.00197  26.53372
   X337      51.11709  -0.00108   0.00000  -0.00144  -0.00083  51.11626
   Y337      34.56309  -0.00194   0.00000  -0.00273  -0.00433  34.55876
   Z337      24.26408  -0.00160   0.00000  -0.00046   0.00075  24.26483
   X338      32.12534  -0.00706   0.00000  -0.00538  -0.00540  32.11994
   Y338      24.47195   0.00696   0.00000   0.00735   0.00689  24.47885
   Z338      27.68449   0.01020   0.00000   0.00398   0.00505  27.68953
   X339      32.21983   0.00326   0.00000   0.00403   0.00403  32.22386
   Y339      23.31922  -0.00630   0.00000  -0.00257  -0.00314  23.31608
   Z339      26.30499  -0.00855   0.00000  -0.00506  -0.00390  26.30109
   X340      33.67492   0.00640   0.00000   0.00628   0.00631  33.68123
   Y340      25.41682   0.00090   0.00000  -0.00045  -0.00098  25.41583
   Z340      27.57110   0.00050   0.00000   0.00180   0.00287  27.57397
   X341      50.39900   0.02526   0.00000   0.01668   0.01651  50.41550
   Y341      45.12666   0.00362   0.00000   0.00553   0.00599  45.13265
   Z341      48.56596   0.01871   0.00000   0.01504   0.01533  48.58130
   X342      50.90922  -0.00092   0.00000  -0.00180  -0.00186  50.90736
   Y342      46.05263   0.00372   0.00000   0.00097   0.00128  46.05391
   Z342      47.11087  -0.01022   0.00000  -0.00817  -0.00792  47.10295
   X343      48.67935  -0.02068   0.00000  -0.00755  -0.00773  48.67162
   Y343      44.69202  -0.00789   0.00000  -0.00886  -0.00835  44.68367
   Z343      48.28250  -0.00813   0.00000  -0.00706  -0.00682  48.27568
   X344      41.21493   0.00898   0.00000   0.00723   0.00712  41.22205
   Y344      49.79428   0.02469   0.00000   0.01836   0.01947  49.81375
   Z344      51.34386   0.00578   0.00000   0.00158   0.00101  51.34486
   X345      41.21493  -0.00297   0.00000  -0.00265  -0.00276  41.21217
   Y345      48.50927  -0.01770   0.00000  -0.01446  -0.01346  48.49581
   Z345      50.07774  -0.00649   0.00000   0.00270   0.00223  50.07997
   X346      40.04330  -0.00431   0.00000  -0.00095  -0.00115  40.04215
   Y346      49.20847  -0.00480   0.00000  -0.00319  -0.00193  49.20654
   Z346      52.59108   0.00060   0.00000  -0.00288  -0.00346  52.58761
   X347      40.66691  -0.00508   0.00000  -0.00113  -0.00215  40.66476
   Y347      23.77275   0.01031   0.00000   0.00286   0.00357  23.77633
   Z347      46.33608  -0.00413   0.00000  -0.00556  -0.00400  46.33209
   X348      39.98660  -0.00096   0.00000   0.00233   0.00119  39.98780
   Y348      22.99797  -0.00271   0.00000  -0.00028   0.00059  22.99856
   Z348      47.82897   0.00892   0.00000   0.00695   0.00854  47.83751
   X349      41.93302   0.00752   0.00000   0.00479   0.00374  41.93676
   Y349      22.62002  -0.01140   0.00000  -0.01184  -0.01123  22.60879
   Z349      45.76917  -0.00456   0.00000  -0.00581  -0.00408  45.76508
   X350      36.07487  -0.01664   0.00000  -0.01051  -0.01155  36.06332
   Y350      33.80720   0.01853   0.00000   0.01329   0.01497  33.82217
   Z350      55.40677   0.00839   0.00000   0.00292   0.00341  55.41018
   X351      36.92525   0.01049   0.00000   0.00777   0.00679  36.93204
   Y351      33.41036  -0.01047   0.00000  -0.01270  -0.01119  33.39917
   Z351      53.85719  -0.01286   0.00000  -0.00626  -0.00569  53.85151
   X352      36.64179   0.00197   0.00000  -0.00183  -0.00299  36.63880
   Y352      32.57888  -0.00743   0.00000  -0.00441  -0.00265  32.57622
   Z352      56.59730   0.00329   0.00000  -0.00052   0.00010  56.59740
   X353      53.91389   0.00693   0.00000   0.00167   0.00113  53.91502
   Y353      34.26073  -0.00629   0.00000  -0.01007  -0.00997  34.25076
   Z353      46.14711   0.01372   0.00000   0.00719   0.00857  46.15569
   X354      54.89654   0.00415   0.00000   0.00423   0.00373  54.90027
   Y354      33.56154  -0.00179   0.00000  -0.00025  -0.00031  33.56123
   Z354      44.80541  -0.00666   0.00000  -0.00661  -0.00512  44.80029
   X355      52.36431  -0.01264   0.00000  -0.00720  -0.00767  52.35664
   Y355      34.75206   0.00781   0.00000   0.00960   0.00970  34.76176
   Z355      45.35343  -0.00719   0.00000  -0.00502  -0.00376  45.34966
   X356      43.93613  -0.00320   0.00000  -0.00022  -0.00002  43.93612
   Y356      50.83363  -0.01238   0.00000  -0.01101  -0.01045  50.82318
   Z356      46.24160  -0.01425   0.00000  -0.01347  -0.01399  46.22761
   X357      44.88100   0.00262   0.00000   0.00307   0.00338  44.88437
   Y357      51.49504   0.00698   0.00000   0.01140   0.01180  51.50684
   Z357      44.84320  -0.00343   0.00000  -0.00418  -0.00471  44.83849
   X358      44.33298  -0.00253   0.00000  -0.00926  -0.00908  44.32390
   Y358      51.92967   0.00237   0.00000  -0.00769  -0.00704  51.92264
   Z358      47.62110   0.01275   0.00000   0.01000   0.00941  47.63051
   X359      46.10932   0.01646   0.00000   0.02976   0.03054  46.13985
   Y359      37.03863   0.00460   0.00000   0.00324   0.00179  37.04042
   Z359      23.28143   0.00610   0.00000  -0.00006   0.00068  23.28211
   X360      46.09042  -0.00182   0.00000  -0.00369  -0.00297  46.08745
   Y360      35.28119  -0.01131   0.00000  -0.00807  -0.00955  35.27164
   Z360      22.86569  -0.00208   0.00000  -0.00188  -0.00099  22.86470
   X361      46.22270  -0.00700   0.00000  -0.01413  -0.01324  46.20946
   Y361      37.87011   0.00633   0.00000   0.00854   0.00695  37.87706
   Z361      21.67516  -0.00909   0.00000  -0.00984  -0.00916  21.66600
   X362      46.18491   0.00068   0.00000   0.00303   0.00279  46.18770
   Y362      24.43416  -0.00092   0.00000  -0.00327  -0.00402  24.43014
   Z362      31.80409   0.01665   0.00000   0.00883   0.01063  31.81472
   X363      45.01328  -0.00543   0.00000  -0.00515  -0.00542  45.00785
   Y363      23.13025  -0.00413   0.00000  -0.00149  -0.00222  23.12803
   Z363      31.36945  -0.00501   0.00000  -0.00675  -0.00491  31.36454
   X364      46.95969  -0.00010   0.00000  -0.00618  -0.00631  46.95338
   Y364      24.88769   0.00511   0.00000   0.00717   0.00626  24.89396
   Z364      30.23562  -0.01347   0.00000  -0.01095  -0.00915  30.22646
   X365      35.62134  -0.00480   0.00000  -0.00355  -0.00278  35.61856
   Y365      55.80361   0.02011   0.00000   0.01779   0.01818  55.82179
   Z365      39.66535   0.00418   0.00000   0.00349   0.00212  39.66747
   X366      34.69537  -0.00542   0.00000  -0.00357  -0.00284  34.69254
   Y366      54.38632  -0.00694   0.00000   0.00007   0.00045  54.38677
   Z366      39.04174  -0.00346   0.00000   0.00003  -0.00127  39.04047
   X367      37.34099   0.01170   0.00000   0.00765   0.00840  37.34939
   Y367      55.25559   0.00034   0.00000   0.00620   0.00651  55.26210
   Z367      39.60866   0.00222   0.00000   0.00587   0.00464  39.61330
   X368      41.13934   0.02803   0.00000   0.02063   0.02106  41.16040
   Y368      28.61045  -0.00146   0.00000   0.00112  -0.00017  28.61029
   Z368      22.60112   0.01237   0.00000   0.01101   0.01220  22.61332
   X369      39.66535  -0.01738   0.00000  -0.01116  -0.01071  39.65464
   Y369      29.57421   0.00671   0.00000   0.00365   0.00246  29.57668
   Z369      22.99797  -0.00634   0.00000  -0.01387  -0.01284  22.98512
   X370      40.62911  -0.00841   0.00000  -0.00654  -0.00610  40.62301
   Y370      27.47662  -0.00305   0.00000   0.00315   0.00178  27.47840
   Z370      21.29721  -0.00612   0.00000  -0.00084   0.00041  21.29763
   X371      45.27784   0.01159   0.00000   0.00703   0.00711  45.28495
   Y371      26.00263   0.00093   0.00000   0.00009  -0.00102  26.00161
   Z371      26.96639   0.00688   0.00000  -0.00105   0.00057  26.96696
   X372      43.87944  -0.01369   0.00000  -0.01161  -0.01151  43.86793
   Y372      25.30343  -0.00247   0.00000   0.00217   0.00105  25.30448
   Z372      26.07822  -0.00829   0.00000  -0.00714  -0.00553  26.07269
   X373      45.44791  -0.00053   0.00000  -0.00060  -0.00040  45.44751
   Y373      27.68449   0.00347   0.00000   0.00467   0.00350  27.68799
   Z373      26.28609   0.00001   0.00000   0.00076   0.00224  26.28833
   X374      52.11865   0.02246   0.00000   0.01968   0.01946  52.13811
   Y374      26.32389  -0.01795   0.00000  -0.01219  -0.01310  26.31078
   Z374      32.99462   0.00966   0.00000   0.00622   0.00817  33.00279
   X375      50.92812  -0.01080   0.00000  -0.00458  -0.00480  50.92332
   Y375      27.26875   0.00776   0.00000   0.00234   0.00156  27.27031
   Z375      33.95838   0.00284   0.00000  -0.00238  -0.00057  33.95780
   X376      51.75960  -0.00972   0.00000  -0.01083  -0.01093  51.74867
   Y376      26.73962   0.00858   0.00000   0.00956   0.00852  26.74815
   Z376      31.27497  -0.00700   0.00000   0.00065   0.00255  31.27751
   X377      54.27293  -0.01074   0.00000  -0.00934  -0.00953  54.26340
   Y377      32.65447  -0.00070   0.00000   0.00650   0.00592  32.66039
   Z377      38.11578   0.00901   0.00000   0.00936   0.01089  38.12666
   X378      55.61464   0.00887   0.00000   0.01124   0.01099  55.62563
   Y378      32.80565   0.00115   0.00000   0.00110   0.00056  32.80620
   Z378      39.32520   0.00013   0.00000  -0.00382  -0.00223  39.32297
   X379      54.85875   0.00377   0.00000   0.00227   0.00220  54.86094
   Y379      33.52374   0.00056   0.00000  -0.00391  -0.00464  33.51910
   Z379      36.64179  -0.00608   0.00000  -0.00449  -0.00300  36.63879
   X380      38.41813   0.00435   0.00000  -0.00036   0.00096  38.41910
   Y380      48.11243   0.01154   0.00000   0.01645   0.01528  48.12770
   Z380      22.41215  -0.00087   0.00000   0.00544   0.00486  22.41701
   X381      39.96771  -0.00366   0.00000  -0.00675  -0.00550  39.96221
   Y381      47.31874  -0.00524   0.00000  -0.00779  -0.00899  47.30975
   Z381      22.97907  -0.00521   0.00000  -0.01052  -0.01095  22.96812
   X382      37.11422  -0.00253   0.00000  -0.00015   0.00108  37.11530
   Y382      47.16756  -0.00558   0.00000  -0.00391  -0.00495  47.16261
   Z382      23.24363   0.00354   0.00000   0.00192   0.00136  23.24499
   X383      21.01375   0.01456   0.00000   0.01254   0.01234  21.02609
   Y383      37.05753   0.00020   0.00000  -0.01165  -0.01040  37.04713
   Z383      42.06530  -0.00205   0.00000  -0.00038  -0.00094  42.06436
   X384      20.65471   0.00220   0.00000   0.00654   0.00626  20.66096
   Y384      37.18981   0.00044   0.00000  -0.00027   0.00114  37.19095
   Z384      43.84165   0.00737   0.00000   0.00595   0.00535  43.84700
   X385      19.70984  -0.01613   0.00000  -0.01716  -0.01737  19.69247
   Y385      36.01818  -0.00565   0.00000  -0.00132  -0.00007  36.01811
   Z385      41.40390  -0.00389   0.00000  -0.00124  -0.00179  41.40211
         Item               Value     Threshold  Converged?
 Maximum Force            0.041145     0.000450     NO 
 RMS     Force            0.010300     0.000300     NO 
 Maximum Displacement     0.032244     0.001800     NO 
 RMS     Displacement     0.008812     0.001200     NO 
 Predicted change in Energy=-7.102507D-02
 GradGradGradGradGradGradGradGradGradGradGradGradGradGradGradGradGradGrad

 Leave Link  103 at Sun May  6 06:21:13 2018, MaxMem= 14763950080 cpu:      2720.8
 (Enter /cm/shared/gaussian/g09.e01/intel64-sandybridge/g09/l9999.exe)
 1\1\GINC-POPLE03\Force\RPBE1PBE\CC-pVDZ\Br1H256O128(1-)\M.PELUSO\06-Ma
 y-2018\0\\#p PBE1PBE/cc-pvDZ force Counterpoise=2 noSymm\\forces on ch
 loride comput - NWATER: 128\\-1,1\Br,20.,20.,20.\O,20.16,22.97,20.91\H
 ,20.08,22.03,20.77\H,21.02,23.19,20.56\O,17.48,18.44,18.89\H,18.26,18.
 94,19.14\H,17.3,17.88,19.65\O,20.6,17.51,17.71\H,20.53,16.66,18.14\H,2
 0.39,18.14,18.4\O,17.04,20.94,21.4\H,16.78,20.02,21.51\H,17.93,20.89,2
 1.06\O,19.5,21.62,16.92\H,18.55,21.78,16.95\H,19.68,21.14,17.73\O,23.2
 1,19.19,19.12\H,23.31,19.96,18.56\H,22.52,19.43,19.73\O,20.19,18.41,23
 .45\H,20.97,18.95,23.57\H,19.91,18.59,22.56\O,22.23,20.07,22.93\H,22.6
 2,20.88,22.62\H,22.25,19.48,22.17\O,20.64,15.99,20.\H,20.44,15.56,20.8
 3\H,20.94,16.86,20.24\O,22.51,17.62,21.35\H,22.96,16.79,21.53\H,22.84,
 17.87,20.48\O,20.35,22.28,23.77\H,20.82,21.45,23.83\H,20.47,22.56,22.8
 6\O,17.05,18.23,21.81\H,16.22,18.08,22.26\H,17.6,17.48,22.07\O,21.84,1
 9.19,15.91\H,21.38,18.48,16.36\H,21.63,19.97,16.41\O,16.29,20.63,17.93
 \H,16.26,20.54,16.98\H,16.41,19.73,18.25\O,16.65,22.76,19.3\H,16.35,22
 .34,20.11\H,16.77,22.03,18.69\O,23.3,22.11,21.55\H,23.37,22.99,21.93\H
 ,23.31,22.25,20.61\O,21.12,23.72,17.6\H,21.03,24.39,16.92\H,20.57,22.9
 9,17.3\O,17.9,24.26,21.33\H,18.75,23.82,21.28\H,17.41,23.94,20.57\O,23
 .32,21.31,17.29\H,23.19,22.11,17.81\H,23.28,21.61,16.38\O,17.02,17.43,
 16.26\H,16.79,18.19,15.73\H,17.5,17.78,17.\O,23.3,23.28,19.16\H,23.99,
 23.88,18.87\H,22.52,23.57,18.68\O,23.89,16.67,17.56\H,24.68,16.76,18.1
 \H,23.53,17.55,17.51\O,18.71,19.95,25.59\H,18.87,19.41,24.82\H,18.48,2
 0.81,25.24\O,20.81,25.84,20.88\H,20.28,25.1,20.59\H,20.35,26.16,21.66\
 O,19.99,21.75,14.01\H,19.7,21.7,14.92\H,20.83,21.29,14.01\O,21.8,15.43
 ,16.19\H,22.,15.95,16.96\H,22.66,15.17,15.85\O,15.07,21.9,23.62\H,14.4
 8,21.83,22.87\H,15.93,21.68,23.26\O,20.26,15.91,25.\H,21.06,15.43,24.7
 8\H,20.32,16.73,24.52\O,24.86,19.2,15.71\H,25.23,20.05,15.48\H,24.04,1
 9.41,16.17\O,18.03,15.56,23.02\H,17.65,15.29,23.86\H,18.97,15.42,23.12
 \O,21.29,13.44,18.8\H,21.17,14.24,19.32\H,22.2,13.48,18.5\O,20.57,14.5
 5,22.24\H,19.91,13.94,21.91\H,21.13,14.02,22.81\O,19.56,16.23,14.63\H,
 19.06,16.31,15.43\H,20.45,16.01,14.92\O,16.89,14.9,19.65\H,16.59,15.14
 ,20.53\H,17.7,14.41,19.8\O,22.53,20.74,13.82\H,23.28,20.31,13.41\H,22.
 17,20.07,14.42\O,16.03,23.96,16.92\H,15.82,23.71,17.83\H,16.88,24.39,1
 6.98\O,16.33,20.06,15.25\H,15.71,19.56,14.72\H,16.51,20.84,14.72\O,23.
 18,17.66,25.33\H,23.18,17.38,24.42\H,23.6,16.94,25.8\O,13.98,21.62,20.
 74\H,13.74,21.74,19.82\H,13.9,20.68,20.89\O,26.62,18.94,22.52\H,27.27,
 19.,21.82\H,25.83,19.33,22.15\O,21.5,20.06,26.77\H,20.9,19.34,26.93\H,
 21.94,19.83,25.95\O,24.,15.48,21.78\H,24.25,14.67,21.33\H,24.83,15.91,
 21.98\O,23.59,24.57,22.67\H,23.33,25.16,23.38\H,24.28,25.04,22.2\O,24.
 31,22.86,24.75\H,24.03,23.14,23.88\H,24.25,21.91,24.73\O,21.7,23.97,25
 .83\H,22.48,23.43,25.73\H,21.03,23.53,25.3\O,24.55,20.07,25.61\H,24.72
 ,19.57,26.41\H,23.9,19.55,25.14\O,18.09,25.38,16.55\H,17.83,26.1,15.98
 \H,18.93,25.65,16.93\O,17.69,26.52,22.88\H,18.58,26.61,23.22\H,17.67,2
 5.65,22.47\O,16.12,14.76,17.14\H,16.14,15.01,18.07\H,16.38,15.55,16.67
 \O,22.44,26.83,18.97\H,21.59,26.88,18.54\H,22.28,26.32,19.77\O,14.63,2
 4.33,21.45\H,15.07,24.57,20.64\H,14.14,23.54,21.23\O,19.88,26.88,17.93
 \H,19.37,26.61,18.7\H,19.7,27.82,17.84\O,13.33,18.69,20.44\H,13.48,17.
 9,19.92\H,12.62,18.45,21.04\O,16.24,22.84,14.39\H,16.1,23.15,15.29\H,1
 6.99,23.34,14.08\O,23.06,14.85,24.27\H,22.49,14.08,24.37\H,23.27,14.88
 ,23.34\O,14.66,17.24,23.51\H,14.24,16.92,22.71\H,14.69,16.48,24.09\O,2
 7.6,20.45,20.1\H,26.93,20.55,19.43\H,28.3,19.95,19.68\O,12.94,21.28,18
 .15\H,13.23,20.37,18.11\H,13.08,21.61,17.27\O,24.09,16.61,14.46\H,23.5
 8,17.02,13.75\H,24.28,17.33,15.06\O,16.18,23.58,25.52\H,16.17,23.03,26
 .3\H,15.76,23.05,24.84\O,18.76,25.12,25.69\H,18.17,24.56,25.18\H,18.95
 ,24.62,26.48\O,18.,27.25,19.96\H,17.25,26.96,19.45\H,17.92,26.79,20.8\
 O,24.51,13.92,19.27\H,24.45,13.77,18.33\H,24.96,14.77,19.35\O,14.66,19
 .01,25.94\H,14.84,18.87,25.01\H,15.41,18.61,26.39\O,16.45,16.46,13.5\H
 ,15.7,17.01,13.69\H,16.97,16.47,14.3\O,20.6,16.96,27.27\H,20.56,16.48,
 26.44\H,21.37,16.61,27.71\O,27.05,17.79,17.02\H,27.82,18.2,16.63\H,26.
 31,18.23,16.6\O,17.02,18.71,27.5\H,17.64,19.19,26.96\H,17.52,18.43,28.
 27\O,26.24,16.17,18.96\H,26.9,16.66,18.46\H,26.54,16.23,19.87\O,20.31,
 26.4,23.78\H,20.06,25.87,24.54\H,21.26,26.47,23.85\O,14.57,15.04,21.29
 \H,14.13,14.4,21.86\H,13.85,15.42,20.78\O,20.27,13.12,15.74\H,19.79,13
 .04,16.57\H,20.97,13.75,15.93\O,24.37,23.72,15.08\H,24.92,23.02,14.74\
 H,24.9,24.51,15.01\O,21.16,25.83,15.32\H,21.35,26.76,15.24\H,21.5,25.4
 4,14.52\O,18.,14.53,26.07\H,18.14,13.8,25.47\H,18.61,15.2,25.77\O,17.9
 6,24.66,13.41\H,18.25,24.79,14.31\H,17.47,25.46,13.2\O,19.78,11.38,18.
 98\H,20.18,12.24,18.89\H,20.41,10.78,18.58\O,26.63,15.98,21.83\H,27.33
 ,16.61,21.67\H,26.99,15.36,22.47\O,19.58,22.47,11.46\H,18.82,23.04,11.
 6\H,19.75,22.07,12.31\O,17.09,12.28,17.94\H,16.81,13.04,17.42\H,17.17,
 12.62,18.83\O,18.68,12.23,21.53\H,19.28,11.77,20.95\H,17.96,11.61,21.6
 7\O,22.33,22.23,27.9\H,21.76,22.76,27.35\H,22.16,21.33,27.64\O,11.84,2
 2.34,22.45\H,12.47,22.39,21.73\H,11.38,21.52,22.31\O,13.46,25.39,18.89
 \H,14.29,25.54,18.43\H,13.29,26.22,19.34\O,13.17,21.46,25.61\H,13.57,2
 0.66,25.95\H,13.7,21.69,24.84\O,19.15,16.3,11.93\H,19.13,16.17,12.88\H
 ,18.29,16.66,11.72\O,24.57,27.12,17.36\H,24.25,27.12,16.46\H,23.79,26.
 92,17.88\O,28.24,22.74,21.43\H,27.99,21.88,21.07\H,27.4,23.17,21.6\O,1
 2.75,16.1,19.56\H,12.69,16.12,18.61\H,11.89,15.81,19.85\O,14.47,18.26,
 13.93\H,13.89,18.56,14.64\H,13.88,18.01,13.22\O,15.73,26.9,18.43\H,15.
 49,27.33,17.61\H,15.19,27.33,19.09\O,25.91,25.62,21.4\H,26.64,25.65,22
 .01\H,26.31,25.42,20.55\O,11.66,23.35,19.49\H,12.21,22.74,19.\H,12.21,
 24.13,19.59\O,18.56,19.31,11.09\H,17.78,18.75,11.12\H,18.42,19.94,11.8
 \O,14.2,25.46,15.24\H,14.94,25.15,15.75\H,14.57,25.64,14.37\O,15.64,26
 .19,24.84\H,15.87,25.29,25.08\H,16.35,26.47,24.26\O,26.49,15.41,15.48\
 H,25.57,15.66,15.39\H,26.97,16.23,15.43\O,26.06,21.31,14.25\H,26.76,21
 .94,14.11\H,25.9,20.93,13.38\O,13.6,13.87,17.16\H,13.64,13.15,16.53\H,
 14.5,14.17,17.25\O,22.72,24.94,13.12\H,23.38,24.48,13.64\H,23.09,25.82
 ,12.99\O,24.6,15.44,26.38\H,25.52,15.66,26.29\H,24.32,15.18,25.5\O,16.
 42,21.89,27.68\H,16.1,22.11,28.55\H,16.38,20.93,27.64\O,12.35,18.69,16
 .33\H,12.37,17.87,16.84\H,11.47,19.04,16.48\O,14.1,21.67,12.95\H,14.53
 ,22.,13.73\H,14.08,22.41,12.34\O,13.26,25.86,23.07\H,13.8,25.4,22.42\H
 ,13.88,26.13,23.74\O,21.64,29.17,20.65\H,22.5,29.58,20.73\H,21.8,28.39
 ,20.12\O,18.68,23.46,27.77\H,19.17,22.84,28.3\H,17.8,23.09,27.71\O,22.
 42,22.72,11.26\H,22.46,22.72,12.21\H,21.49,22.58,11.06\O,18.54,12.36,2
 4.46\H,18.5,12.09,23.54\H,19.43,12.69,24.57\O,13.,22.7,15.57\H,12.59,2
 2.57,14.72\H,13.49,23.51,15.49\O,26.71,25.31,18.15\H,26.03,25.87,17.79
 \H,27.07,24.85,17.4\O,27.07,18.34,13.8\H,26.19,18.63,14.04\H,27.05,18.
 29,12.84\O,17.,12.95,14.65\H,17.05,12.34,13.92\H,17.82,13.45,14.59\O,2
 6.67,23.88,25.7\H,26.94,24.37,24.93\H,25.76,23.65,25.55\O,21.81,26.35,
 27.17\H,21.81,25.67,26.5\H,21.19,26.04,27.83\O,21.52,12.58,24.52\H,21.
 16,12.17,25.31\H,22.19,11.97,24.22\O,19.09,17.89,29.32\H,19.54,17.68,2
 8.5\H,19.39,17.24,29.95\O,28.53,18.13,24.42\H,29.05,17.76,23.71\H,27.7
 1,18.39,24.\O,23.25,26.9,24.47\H,23.75,27.25,23.73\H,23.46,27.48,25.2\
 O,24.4,19.6,12.32\H,24.39,18.67,12.1\H,24.46,20.04,11.47\O,24.44,12.93
 ,16.83\H,23.82,12.24,16.6\H,24.85,13.17,16.\O,18.85,29.53,20.99\H,18.3
 6,28.78,20.66\H,19.76,29.24,20.96\O,21.77,15.14,11.96\H,20.99,15.65,12
 .17\H,21.5,14.54,11.27\O,23.96,13.76,14.27\H,23.22,13.39,13.8\H,24.05,
 14.65,13.91\O,27.58,13.93,17.46\H,26.95,14.43,17.97\H,27.39,14.15,16.5
 5\O,28.72,17.28,20.17\H,29.43,17.36,20.81\H,29.03,17.74,19.39\O,20.33,
 25.46,11.86\H,21.15,25.04,12.16\H,19.64,24.96,12.3\O,11.12,19.61,22.26
 \H,10.93,19.68,23.2\H,10.43,19.06,21.91\\Version=ES64L-G09RevE.01\HF=-
 9773.3950366\RMSD=2.006e-09\RMSF=1.030e-02\Dipole=9.5995259,-9.1544951
 ,-12.6467469\Quadrupole=1120.0522119,-405.5170145,-714.5351974,-1321.0
 351613,-1528.1708888,-2492.0474971\PG=C01 [X(Br1H256O128)]\\@


 IF IT HAPPENS, IT MUST BE POSSIBLE.

 -- THE UNNAMED LAW FROM PAUL DICKSON'S 
    "THE OFFICIAL RULES"
 Job cpu time:       6 days 20 hours 28 minutes 44.5 seconds.
 File lengths (MBytes):  RWF=   7285 Int=      0 D2E=      0 Chk=   2411 Scr=      1
 Normal termination of Gaussian 09 at Sun May  6 06:21:45 2018.
