 Entering Gaussian System, Link 0=/cm/shared/gaussian/g09.e01/intel64-sandybridge/g09/g09
 Initial command:
 /cm/shared/gaussian/g09.e01/intel64-sandybridge/g09/l1.exe "/local/scratch/m.peluso/128_wat/Gau-38245.inp" -scrdir="/local/scratch/m.peluso/128_wat/"
 Entering Link 1 = /cm/shared/gaussian/g09.e01/intel64-sandybridge/g09/l1.exe PID=     38246.
  
 Copyright (c) 1988,1990,1992,1993,1995,1998,2003,2009,2015,
            Gaussian, Inc.  All Rights Reserved.
  
 This is part of the Gaussian(R) 09 program.  It is based on
 the Gaussian(R) 03 system (copyright 2003, Gaussian, Inc.),
 the Gaussian(R) 98 system (copyright 1998, Gaussian, Inc.),
 the Gaussian(R) 94 system (copyright 1995, Gaussian, Inc.),
 the Gaussian 92(TM) system (copyright 1992, Gaussian, Inc.),
 the Gaussian 90(TM) system (copyright 1990, Gaussian, Inc.),
 the Gaussian 88(TM) system (copyright 1988, Gaussian, Inc.),
 the Gaussian 86(TM) system (copyright 1986, Carnegie Mellon
 University), and the Gaussian 82(TM) system (copyright 1983,
 Carnegie Mellon University). Gaussian is a federally registered
 trademark of Gaussian, Inc.
  
 This software contains proprietary and confidential information,
 including trade secrets, belonging to Gaussian, Inc.
  
 This software is provided under written license and may be
 used, copied, transmitted, or stored only in accord with that
 written license.
  
 The following legend is applicable only to US Government
 contracts under FAR:
  
                    RESTRICTED RIGHTS LEGEND
  
 Use, reproduction and disclosure by the US Government is
 subject to restrictions as set forth in subparagraphs (a)
 and (c) of the Commercial Computer Software - Restricted
 Rights clause in FAR 52.227-19.
  
 Gaussian, Inc.
 340 Quinnipiac St., Bldg. 40, Wallingford CT 06492
  
  
 ---------------------------------------------------------------
 Warning -- This program may not be used in any manner that
 competes with the business of Gaussian, Inc. or will provide
 assistance to any competitor of Gaussian, Inc.  The licensee
 of this program is prohibited from giving any competitor of
 Gaussian, Inc. access to this program.  By using this program,
 the user acknowledges that Gaussian, Inc. is engaged in the
 business of creating and licensing software in the field of
 computational chemistry and represents and warrants to the
 licensee that it is not a competitor of Gaussian, Inc. and that
 it will not use this program in any manner prohibited above.
 ---------------------------------------------------------------
  

 Cite this work as:
 Gaussian 09, Revision E.01,
 M. J. Frisch, G. W. Trucks, H. B. Schlegel, G. E. Scuseria, 
 M. A. Robb, J. R. Cheeseman, G. Scalmani, V. Barone, B. Mennucci, 
 G. A. Petersson, H. Nakatsuji, M. Caricato, X. Li, H. P. Hratchian, 
 A. F. Izmaylov, J. Bloino, G. Zheng, J. L. Sonnenberg, M. Hada, 
 M. Ehara, K. Toyota, R. Fukuda, J. Hasegawa, M. Ishida, T. Nakajima, 
 Y. Honda, O. Kitao, H. Nakai, T. Vreven, J. A. Montgomery, Jr., 
 J. E. Peralta, F. Ogliaro, M. Bearpark, J. J. Heyd, E. Brothers, 
 K. N. Kudin, V. N. Staroverov, T. Keith, R. Kobayashi, J. Normand, 
 K. Raghavachari, A. Rendell, J. C. Burant, S. S. Iyengar, J. Tomasi, 
 M. Cossi, N. Rega, J. M. Millam, M. Klene, J. E. Knox, J. B. Cross, 
 V. Bakken, C. Adamo, J. Jaramillo, R. Gomperts, R. E. Stratmann, 
 O. Yazyev, A. J. Austin, R. Cammi, C. Pomelli, J. W. Ochterski, 
 R. L. Martin, K. Morokuma, V. G. Zakrzewski, G. A. Voth, 
 P. Salvador, J. J. Dannenberg, S. Dapprich, A. D. Daniels, 
 O. Farkas, J. B. Foresman, J. V. Ortiz, J. Cioslowski, 
 and D. J. Fox, Gaussian, Inc., Wallingford CT, 2013.
 
 ******************************************
 Gaussian 09:  ES64L-G09RevE.01 30-Nov-2015
                 6-May-2018 
 ******************************************
 %Mem=110GB
 %NProcShared=64
 Will use up to   64 processors via shared memory.
 %chk=snap47.chk
 ----------------------------------------------
 #p PBE1PBE/cc-pvDZ force Counterpoise=2 noSymm
 ----------------------------------------------
 1/10=7,30=1,38=1,62=2/1,3;
 2/12=2,15=1,17=6,18=5,40=1/2;
 1/10=7,30=1,38=1,53=2,62=2,63=101/22;
 3/5=16,11=2,16=1,25=1,30=1,71=1,74=-13/1,2,3;
 4//1;
 5/5=2,38=5/2;
 6/7=2,8=2,9=2,10=2,28=1/1;
 7/7=1,29=1,30=1,33=-1/1,2,3,16;
 1/10=7,30=1,53=2,62=2,63=101/22;
 3/5=7,6=11,11=2,16=1,25=1,30=1,71=1,74=-13,82=7/1,2,3;
 4//1;
 5/5=2,38=5/2;
 6/7=2,8=2,9=2,10=2,28=1/1;
 7/7=1,29=1,30=1,33=-1/1,2,3,16;
 1/10=7,30=1,53=2,62=2,63=101/22(-5);
 7/9=1,29=1,44=-1/16;
 1/10=7,30=1,62=2/3;
 99//99;
 Leave Link    1 at Sun May  6 15:19:35 2018, MaxMem= 14763950080 cpu:         9.3
 (Enter /cm/shared/gaussian/g09.e01/intel64-sandybridge/g09/l101.exe)
 ---------------------------------------
 forces on chloride comput - NWATER: 128
 ---------------------------------------
 Symbolic Z-matrix:
 Charge = -1 Multiplicity = 1 in supermolecule
 Charge = -1 Multiplicity = 1 in fragment      1.
 Charge =  0 Multiplicity = 1 in fragment      2.
 Br(Fragment=1)        20.       20.       20. 
 O(Fragment=2)         18.48     22.1      21.9 
 H(Fragment=2)         17.73     21.99     21.32 
 H(Fragment=2)         19.19     21.63     21.47 
 O(Fragment=2)         21.57     17.03     19.49 
 H(Fragment=2)         21.16     17.89     19.58 
 H(Fragment=2)         21.94     16.86     20.36 
 O(Fragment=2)         16.69     21.02     20.32 
 H(Fragment=2)         17.56     20.66     20.12 
 H(Fragment=2)         16.2      20.93     19.5 
 O(Fragment=2)         20.47     19.26     23.31 
 H(Fragment=2)         21.12     18.6      23.54 
 H(Fragment=2)         20.69     19.52     22.42 
 O(Fragment=2)         23.35     20.55     18.65 
 H(Fragment=2)         22.47     20.29     18.9 
 H(Fragment=2)         23.74     19.77     18.27 
 O(Fragment=2)         18.8      21.87     16.73 
 H(Fragment=2)         19.22     21.63     17.56 
 H(Fragment=2)         18.46     21.04     16.39 
 O(Fragment=2)         17.86     17.19     21.87 
 H(Fragment=2)         18.27     17.9      21.38 
 H(Fragment=2)         16.98     17.12     21.5 
 O(Fragment=2)         22.44     22.42     16.8 
 H(Fragment=2)         22.97     22.13     16.06 
 H(Fragment=2)         22.66     21.81     17.5 
 O(Fragment=2)         17.1      17.25     16.52 
 H(Fragment=2)         17.82     17.54     17.07 
 H(Fragment=2)         16.58     18.04     16.37 
 O(Fragment=2)         18.44     20.07     24.95 
 H(Fragment=2)         18.86     20.17     25.8 
 H(Fragment=2)         19.16     19.91     24.34 
 O(Fragment=2)         20.85     19.84     15.56 
 H(Fragment=2)         20.47     20.71     15.62 
 H(Fragment=2)         21.74     19.99     15.23 
 O(Fragment=2)         24.65     22.52     19.98 
 H(Fragment=2)         24.02     21.98     19.51 
 H(Fragment=2)         24.52     23.4      19.63 
 O(Fragment=2)         22.81     16.33     17.23 
 H(Fragment=2)         23.57     16.92     17.18 
 H(Fragment=2)         22.42     16.51     18.08 
 O(Fragment=2)         16.85     22.26     24.08 
 H(Fragment=2)         16.86     21.53     24.7 
 H(Fragment=2)         17.36     21.96     23.33 
 O(Fragment=2)         20.17     14.52     19.51 
 H(Fragment=2)         20.44     15.36     19.14 
 H(Fragment=2)         19.24     14.45     19.29 
 O(Fragment=2)         22.52     23.41     22.61 
 H(Fragment=2)         21.67     23.28     23.04 
 H(Fragment=2)         22.96     22.56     22.68 
 O(Fragment=2)         19.53     16.27     23.83 
 H(Fragment=2)         19.01     16.48     23.05 
 H(Fragment=2)         20.41     16.6      23.61 
 O(Fragment=2)         16.25     22.7      17.36 
 H(Fragment=2)         16.01     23.59     17.09 
 H(Fragment=2)         17.19     22.64     17.17 
 O(Fragment=2)         21.25     24.62     17.93 
 H(Fragment=2)         21.65     23.85     17.53 
 H(Fragment=2)         21.79     24.82     18.69 
 O(Fragment=2)         20.39     22.36     24.89 
 H(Fragment=2)         19.47     22.12     24.98 
 H(Fragment=2)         20.82     21.57     24.58 
 O(Fragment=2)         22.23     17.3      23.89 
 H(Fragment=2)         22.58     16.6      24.45 
 H(Fragment=2)         22.61     17.12     23.03 
 O(Fragment=2)         20.8      17.06     15.44 
 H(Fragment=2)         21.58     16.96     15.99 
 H(Fragment=2)         20.56     17.98     15.52 
 O(Fragment=2)         18.74     24.52     23.54 
 H(Fragment=2)         18.24     24.52     24.36 
 H(Fragment=2)         18.57     23.66     23.16 
 O(Fragment=2)         18.72     25.28     18.52 
 H(Fragment=2)         19.52     24.77     18.41 
 H(Fragment=2)         18.48     25.17     19.44 
 O(Fragment=2)         23.44     16.67     21.61 
 H(Fragment=2)         24.16     17.01     21.07 
 H(Fragment=2)         23.8      15.88     22.02 
 O(Fragment=2)         15.52     17.71     20.6 
 H(Fragment=2)         15.09     17.61     19.75 
 H(Fragment=2)         14.87     18.12     21.16 
 O(Fragment=2)         22.88     24.83     20.19 
 H(Fragment=2)         22.84     24.24     20.94 
 H(Fragment=2)         23.35     25.6      20.51 
 O(Fragment=2)         24.77     21.17     22.53 
 H(Fragment=2)         25.47     21.52     23.07 
 H(Fragment=2)         24.72     21.76     21.78 
 O(Fragment=2)         23.85     19.65     24.45 
 H(Fragment=2)         23.33     18.95     24.06 
 H(Fragment=2)         24.44     19.92     23.76 
 O(Fragment=2)         14.25     21.25     21.99 
 H(Fragment=2)         15.14     21.53     21.81 
 H(Fragment=2)         13.86     21.11     21.13 
 O(Fragment=2)         16.84     20.35     15.62 
 H(Fragment=2)         15.89     20.49     15.64 
 H(Fragment=2)         17.04     20.16     14.71 
 O(Fragment=2)         19.35     22.42     14.14 
 H(Fragment=2)         18.96     22.23     15. 
 H(Fragment=2)         20.01     23.08     14.32 
 O(Fragment=2)         24.81     18.12     17.44 
 H(Fragment=2)         24.76     18.63     16.63 
 H(Fragment=2)         25.64     18.38     17.84 
 O(Fragment=2)         14.27     21.56     18.74 
 H(Fragment=2)         14.9      21.98     18.15 
 H(Fragment=2)         13.72     22.27     19.06 
 O(Fragment=2)         17.68     25.93     21.3 
 H(Fragment=2)         18.27     25.47     21.9 
 H(Fragment=2)         17.18     26.52     21.86 
 O(Fragment=2)         15.67     24.34     22.68 
 H(Fragment=2)         16.07     24.42     21.82 
 H(Fragment=2)         16.12     23.6      23.09 
 O(Fragment=2)         25.74     17.5      20.47 
 H(Fragment=2)         26.36     17.92     19.87 
 H(Fragment=2)         26.1      16.62     20.61 
 O(Fragment=2)         16.41     18.1      25.96 
 H(Fragment=2)         16.4      18.59     26.79 
 H(Fragment=2)         16.85     18.68     25.34 
 O(Fragment=2)         19.05     17.07     26.45 
 H(Fragment=2)         19.44     17.02     25.58 
 H(Fragment=2)         18.15     17.34     26.3 
 O(Fragment=2)         21.64     14.08     16.64 
 H(Fragment=2)         21.03     14.13     15.91 
 H(Fragment=2)         22.12     14.91     16.62 
 O(Fragment=2)         16.84     14.76     15.82 
 H(Fragment=2)         17.02     15.63     16.16 
 H(Fragment=2)         16.28     14.9      15.06 
 O(Fragment=2)         16.13     15.25     24.07 
 H(Fragment=2)         16.67     15.81     24.64 
 H(Fragment=2)         16.18     15.67     23.21 
 O(Fragment=2)         14.44     16.9      18.11 
 H(Fragment=2)         14.34     17.38     17.29 
 H(Fragment=2)         14.57     15.99     17.85 
 O(Fragment=2)         23.65     21.21     14.55 
 H(Fragment=2)         23.29     20.88     13.73 
 H(Fragment=2)         24.37     21.78     14.28 
 O(Fragment=2)         21.91     24.03     14.28 
 H(Fragment=2)         22.48     23.65     14.94 
 H(Fragment=2)         22.38     23.9      13.45 
 O(Fragment=2)         18.6      17.49     13.01 
 H(Fragment=2)         19.15     17.88     12.33 
 H(Fragment=2)         19.14     17.5      13.8 
 O(Fragment=2)         21.06     26.07     24.03 
 H(Fragment=2)         21.21     26.67     23.3 
 H(Fragment=2)         20.26     25.6      23.79 
 O(Fragment=2)         12.79     19.53     19.68 
 H(Fragment=2)         13.11     18.7      19.33 
 H(Fragment=2)         13.28     20.19     19.19 
 O(Fragment=2)         17.26     13.89     18.83 
 H(Fragment=2)         16.33     14.07     18.91 
 H(Fragment=2)         17.43     13.88     17.89 
 O(Fragment=2)         21.95     24.35     25.76 
 H(Fragment=2)         21.54     24.91     25.1 
 H(Fragment=2)         21.52     23.5      25.64 
 O(Fragment=2)         21.01     12.55     21.51 
 H(Fragment=2)         20.65     13.28     21.01 
 H(Fragment=2)         21.15     11.86     20.86 
 O(Fragment=2)         19.71     14.53     14.64 
 H(Fragment=2)         19.2      15.14     15.18 
 H(Fragment=2)         19.1      13.83     14.42 
 O(Fragment=2)         23.18     13.05     18.6 
 H(Fragment=2)         22.86     12.23     18.21 
 H(Fragment=2)         22.49     13.68     18.46 
 O(Fragment=2)         21.12     27.46     18.08 
 H(Fragment=2)         20.65     26.64     17.95 
 H(Fragment=2)         20.5      28.02     18.56 
 O(Fragment=2)         27.46     22.53     19.76 
 H(Fragment=2)         27.63     21.67     20.15 
 H(Fragment=2)         26.51     22.63     19.79 
 O(Fragment=2)         17.1      26.92     17.35 
 H(Fragment=2)         16.65     27.33     18.09 
 H(Fragment=2)         17.71     26.31     17.76 
 O(Fragment=2)         22.31     15.75     13.75 
 H(Fragment=2)         22.4      14.85     14.08 
 H(Fragment=2)         21.61     16.13     14.28 
 O(Fragment=2)         19.15     14.06     25.38 
 H(Fragment=2)         19.08     13.43     24.66 
 H(Fragment=2)         19.34     14.89     24.95 
 O(Fragment=2)         22.77     18.76     13.41 
 H(Fragment=2)         23.47     18.79     12.76 
 H(Fragment=2)         22.77     17.85     13.72 
 O(Fragment=2)         16.63     12.81     21.05 
 H(Fragment=2)         17.42     12.3      21.21 
 H(Fragment=2)         16.91     13.47     20.41 
 O(Fragment=2)         24.51     20.85     26.71 
 H(Fragment=2)         23.72     20.93     27.24 
 H(Fragment=2)         24.22     20.39     25.91 
 O(Fragment=2)         13.23     20.65     24.36 
 H(Fragment=2)         13.55     20.79     23.47 
 H(Fragment=2)         13.64     21.33     24.88 
 O(Fragment=2)         26.54     22.18     16.68 
 H(Fragment=2)         26.15     22.96     17.09 
 H(Fragment=2)         26.95     21.71     17.41 
 O(Fragment=2)         19.27     20.96     11.83 
 H(Fragment=2)         19.32     21.36     12.7 
 H(Fragment=2)         18.48     21.34     11.45 
 O(Fragment=2)         13.84     18.86     15.92 
 H(Fragment=2)         13.42     19.72     15.94 
 H(Fragment=2)         13.19     18.28     15.51 
 O(Fragment=2)         19.32     20.62     27.48 
 H(Fragment=2)         18.93     21.49     27.55 
 H(Fragment=2)         19.23     20.25     28.36 
 O(Fragment=2)         25.84     24.89     17.42 
 H(Fragment=2)         26.21     25.32     16.65 
 H(Fragment=2)         24.95     25.22     17.47 
 O(Fragment=2)         25.42     17.77     26.07 
 H(Fragment=2)         24.68     17.16     26.17 
 H(Fragment=2)         25.1      18.44     25.46 
 O(Fragment=2)         14.62     22.78     14.4 
 H(Fragment=2)         14.43     23.48     13.78 
 H(Fragment=2)         14.95     23.23     15.18 
 O(Fragment=2)         25.6      18.73     14.82 
 H(Fragment=2)         25.01     19.17     14.2 
 H(Fragment=2)         26.37     19.3      14.86 
 O(Fragment=2)         15.39     24.98     16.29 
 H(Fragment=2)         14.47     25.08     16.56 
 H(Fragment=2)         15.78     25.84     16.47 
 O(Fragment=2)         20.04     25.81     14.38 
 H(Fragment=2)         20.2      26.26     15.21 
 H(Fragment=2)         20.76     25.19     14.3 
 O(Fragment=2)         23.71     26.83     17.2 
 H(Fragment=2)         22.76     26.71     17.25 
 H(Fragment=2)         23.85     27.44     16.48 
 O(Fragment=2)         12.99     17.52     22.54 
 H(Fragment=2)         12.9      16.58     22.64 
 H(Fragment=2)         13.35     17.81     23.38 
 O(Fragment=2)         16.46     19.3      12.69 
 H(Fragment=2)         16.65     19.52     11.78 
 H(Fragment=2)         17.09     18.62     12.91 
 O(Fragment=2)         27.42     18.34     18.24 
 H(Fragment=2)         28.12     17.72     18.46 
 H(Fragment=2)         27.87     19.03     17.75 
 O(Fragment=2)         22.12     21.02     28.09 
 H(Fragment=2)         21.28     20.69     27.76 
 H(Fragment=2)         21.96     21.95     28.26 
 O(Fragment=2)         23.49     15.44     25.45 
 H(Fragment=2)         23.08     14.58     25.53 
 H(Fragment=2)         24.31     15.27     24.99 
 O(Fragment=2)         28.2      20.26     20.9 
 H(Fragment=2)         27.77     19.73     21.57 
 H(Fragment=2)         29.11     20.3      21.17 
 O(Fragment=2)         17.31     24.99     13.96 
 H(Fragment=2)         16.87     25.5      14.64 
 H(Fragment=2)         18.24     25.09     14.15 
 O(Fragment=2)         13.52     18.19     25.16 
 H(Fragment=2)         14.43     17.97     25.33 
 H(Fragment=2)         13.54     19.11     24.89 
 O(Fragment=2)         24.92     25.4      24.44 
 H(Fragment=2)         25.13     24.6      24.93 
 H(Fragment=2)         23.97     25.39     24.37 
 O(Fragment=2)         24.58     12.92     20.95 
 H(Fragment=2)         25.04     12.1      20.74 
 H(Fragment=2)         23.85     12.95     20.33 
 O(Fragment=2)         21.52     28.06     21.84 
 H(Fragment=2)         21.03     27.92     21.03 
 H(Fragment=2)         22.38     27.67     21.67 
 O(Fragment=2)         15.26     25.16     25.09 
 H(Fragment=2)         14.65     24.45     25.28 
 H(Fragment=2)         15.37     25.14     24.14 
 O(Fragment=2)         17.7      24.75     26.14 
 H(Fragment=2)         18.14     25.58     25.96 
 H(Fragment=2)         16.77     24.96     26.18 
 O(Fragment=2)         18.87     11.98     23.51 
 H(Fragment=2)         18.61     11.29     22.89 
 H(Fragment=2)         19.56     12.46     23.05 
 O(Fragment=2)         23.78     27.52     20.25 
 H(Fragment=2)         23.74     27.24     19.34 
 H(Fragment=2)         24.01     28.45     20.21 
 O(Fragment=2)         26.43     14.84     21.42 
 H(Fragment=2)         27.09     14.27     21.81 
 H(Fragment=2)         25.7      14.26     21.22 
 O(Fragment=2)         26.18     14.51     16.91 
 H(Fragment=2)         26.23     15.23     17.54 
 H(Fragment=2)         25.52     14.79     16.27 
 O(Fragment=2)         12.71     21.3      15.72 
 H(Fragment=2)         12.24     21.85     16.35 
 H(Fragment=2)         13.39     21.87     15.37 
 O(Fragment=2)         20.73     18.66     11.5 
 H(Fragment=2)         20.33     19.51     11.68 
 H(Fragment=2)         21.57     18.7      11.95 
 O(Fragment=2)         20.42     17.29     28.86 
 H(Fragment=2)         20.41     17.51     27.93 
 H(Fragment=2)         20.16     18.1      29.3 
 O(Fragment=2)         25.83     15.59     23.99 
 H(Fragment=2)         26.41     15.59     23.23 
 H(Fragment=2)         26.41     15.82     24.72 
 O(Fragment=2)         14.39     13.77     19.05 
 H(Fragment=2)         13.54     13.41     18.81 
 H(Fragment=2)         14.35     13.86     20. 
 O(Fragment=2)         19.44     28.6      19.92 
 H(Fragment=2)         18.56     28.23     20.01 
 H(Fragment=2)         19.3      29.55     19.97 
 O(Fragment=2)         12.3      24.37     20.98 
 H(Fragment=2)         12.82     24.15     21.75 
 H(Fragment=2)         11.63     23.68     20.94 
 O(Fragment=2)         25.4      16.03     14.61 
 H(Fragment=2)         24.74     15.88     13.94 
 H(Fragment=2)         25.68     16.94     14.48 
 O(Fragment=2)         14.1      20.58     13.12 
 H(Fragment=2)         14.26     21.34     13.67 
 H(Fragment=2)         14.94     20.13     13.07 
 O(Fragment=2)         27.21     22.54     24.06 
 H(Fragment=2)         27.38     23.23     23.43 
 H(Fragment=2)         26.6      22.93     24.68 
 O(Fragment=2)         18.03     23.03     28.23 
 H(Fragment=2)         18.01     23.69     27.53 
 H(Fragment=2)         17.74     23.51     29.01 
 O(Fragment=2)         26.       22.48     13.7 
 H(Fragment=2)         26.54     21.97     13.1 
 H(Fragment=2)         26.33     22.27     14.57 
 O(Fragment=2)         16.22     12.52     24.06 
 H(Fragment=2)         17.15     12.47     23.86 
 H(Fragment=2)         15.99     13.44     23.95 
 O(Fragment=2)         13.66     26.59     22.42 
 H(Fragment=2)         14.3      25.97     22.79 
 H(Fragment=2)         14.19     27.2      21.91 
 O(Fragment=2)         14.31     17.15     13.1 
 H(Fragment=2)         13.57     17.24     13.7 
 H(Fragment=2)         14.84     17.93     13.26 
 O(Fragment=2)         10.91     21.66     19.46 
 H(Fragment=2)         11.31     20.79     19.47 
 H(Fragment=2)         10.6      21.79     20.35 
 O(Fragment=2)         28.42     15.81     19.82 
 H(Fragment=2)         27.7      15.78     20.46 
 H(Fragment=2)         29.01     16.48     20.16 
 O(Fragment=2)         17.02     23.19     11.65 
 H(Fragment=2)         17.15     23.97     12.19 
 H(Fragment=2)         16.64     22.55     12.25 
 O(Fragment=2)         17.17     14.46     27.28 
 H(Fragment=2)         17.08     13.51     27.35 
 H(Fragment=2)         17.89     14.59     26.66 
 O(Fragment=2)         22.49     24.43     28.29 
 H(Fragment=2)         22.24     24.34     27.37 
 H(Fragment=2)         23.45     24.39     28.28 
 O(Fragment=2)         16.42     27.79     22.7 
 H(Fragment=2)         15.86     28.51     22.99 
 H(Fragment=2)         16.94     27.57     23.47 
 O(Fragment=2)         22.6      11.44     23.61 
 H(Fragment=2)         22.       11.89     23.01 
 H(Fragment=2)         22.52     11.93     24.43 
 O(Fragment=2)         27.81     24.26     22.1 
 H(Fragment=2)         27.98     23.64     21.39 
 H(Fragment=2)         28.12     25.1      21.76 
 O(Fragment=2)         15.53     12.25     17.14 
 H(Fragment=2)         14.75     12.74     17.41 
 H(Fragment=2)         16.01     12.84     16.57 
 O(Fragment=2)         10.41     19.08     21.65 
 H(Fragment=2)         11.21     19.06     21.12 
 H(Fragment=2)         10.27     20.01     21.83 
 O(Fragment=2)         18.63     11.6      15.47 
 H(Fragment=2)         18.49     12.01     16.32 
 H(Fragment=2)         19.42     11.06     15.59 
 O(Fragment=2)         16.07     28.51     19.83 
 H(Fragment=2)         16.46     28.2      20.65 
 H(Fragment=2)         15.27     27.99     19.74 
 O(Fragment=2)         25.67     23.24     26.15 
 H(Fragment=2)         25.78     22.34     26.44 
 H(Fragment=2)         25.48     23.74     26.94 
 O(Fragment=2)         24.39     12.7      15.55 
 H(Fragment=2)         23.95     12.79     16.39 
 H(Fragment=2)         23.69     12.79     14.9 
 O(Fragment=2)         22.18     27.44     26.08 
 H(Fragment=2)         21.66     26.98     25.42 
 H(Fragment=2)         21.79     27.19     26.91 
 O(Fragment=2)         10.77     16.3      21.16 
 H(Fragment=2)         11.6      16.77     21.28 
 H(Fragment=2)         10.18     16.73     21.78 
 O(Fragment=2)         16.23     19.58     28.27 
 H(Fragment=2)         15.32     19.48     28.54 
 H(Fragment=2)         16.46     20.48     28.52 
 O(Fragment=2)         28.78     20.4      23.91 
 H(Fragment=2)         28.74     20.2      24.85 
 H(Fragment=2)         28.23     21.17     23.81 
 O(Fragment=2)         18.38     28.7      15.54 
 H(Fragment=2)         17.95     28.07     16.12 
 H(Fragment=2)         17.66     29.21     15.17 
 O(Fragment=2)         13.04     14.92     23.3 
 H(Fragment=2)         13.31     14.09     22.9 
 H(Fragment=2)         13.39     14.89     24.19 
 O(Fragment=2)         14.07     14.47     25.95 
 H(Fragment=2)         14.2      14.89     26.8 
 H(Fragment=2)         14.9      14.59     25.49 
 O(Fragment=2)         11.35     23.16     17.29 
 H(Fragment=2)         11.32     22.71     18.13 
 H(Fragment=2)         10.82     23.94     17.42 
 O(Fragment=2)         28.13     26.04     18.6 
 H(Fragment=2)         28.8      25.36     18.51 
 H(Fragment=2)         27.3      25.57     18.56 
 
 NAtoms=    385 NQM=      385 NQMF=       0 NMMI=      0 NMMIF=      0
                NMic=       0 NMicF=      0.
                    Isotopes and Nuclear Properties:
 (Nuclear quadrupole moments (NQMom) in fm**2, nuclear magnetic moments (NMagM)
  in nuclear magnetons)

  Atom         1           2           3           4           5           6           7           8           9          10
 IAtWgt=          79          16           1           1          16           1           1          16           1           1
 AtmWgt=  78.9183361  15.9949146   1.0078250   1.0078250  15.9949146   1.0078250   1.0078250  15.9949146   1.0078250   1.0078250
 NucSpn=           3           0           1           1           0           1           1           0           1           1
 AtZEff=   0.0000000   0.0000000   0.0000000   0.0000000   0.0000000   0.0000000   0.0000000   0.0000000   0.0000000   0.0000000
 NQMom=   31.3000000   0.0000000   0.0000000   0.0000000   0.0000000   0.0000000   0.0000000   0.0000000   0.0000000   0.0000000
 NMagM=    2.1063990   0.0000000   2.7928460   2.7928460   0.0000000   2.7928460   2.7928460   0.0000000   2.7928460   2.7928460
 AtZNuc=  35.0000000   8.0000000   1.0000000   1.0000000   8.0000000   1.0000000   1.0000000   8.0000000   1.0000000   1.0000000

  Atom        11          12          13          14          15          16          17          18          19          20
 IAtWgt=          16           1           1          16           1           1          16           1           1          16
 AtmWgt=  15.9949146   1.0078250   1.0078250  15.9949146   1.0078250   1.0078250  15.9949146   1.0078250   1.0078250  15.9949146
 NucSpn=           0           1           1           0           1           1           0           1           1           0
 AtZEff=   0.0000000   0.0000000   0.0000000   0.0000000   0.0000000   0.0000000   0.0000000   0.0000000   0.0000000   0.0000000
 NQMom=    0.0000000   0.0000000   0.0000000   0.0000000   0.0000000   0.0000000   0.0000000   0.0000000   0.0000000   0.0000000
 NMagM=    0.0000000   2.7928460   2.7928460   0.0000000   2.7928460   2.7928460   0.0000000   2.7928460   2.7928460   0.0000000
 AtZNuc=   8.0000000   1.0000000   1.0000000   8.0000000   1.0000000   1.0000000   8.0000000   1.0000000   1.0000000   8.0000000

  Atom        21          22          23          24          25          26          27          28          29          30
 IAtWgt=           1           1          16           1           1          16           1           1          16           1
 AtmWgt=   1.0078250   1.0078250  15.9949146   1.0078250   1.0078250  15.9949146   1.0078250   1.0078250  15.9949146   1.0078250
 NucSpn=           1           1           0           1           1           0           1           1           0           1
 AtZEff=   0.0000000   0.0000000   0.0000000   0.0000000   0.0000000   0.0000000   0.0000000   0.0000000   0.0000000   0.0000000
 NQMom=    0.0000000   0.0000000   0.0000000   0.0000000   0.0000000   0.0000000   0.0000000   0.0000000   0.0000000   0.0000000
 NMagM=    2.7928460   2.7928460   0.0000000   2.7928460   2.7928460   0.0000000   2.7928460   2.7928460   0.0000000   2.7928460
 AtZNuc=   1.0000000   1.0000000   8.0000000   1.0000000   1.0000000   8.0000000   1.0000000   1.0000000   8.0000000   1.0000000

  Atom        31          32          33          34          35          36          37          38          39          40
 IAtWgt=           1          16           1           1          16           1           1          16           1           1
 AtmWgt=   1.0078250  15.9949146   1.0078250   1.0078250  15.9949146   1.0078250   1.0078250  15.9949146   1.0078250   1.0078250
 NucSpn=           1           0           1           1           0           1           1           0           1           1
 AtZEff=   0.0000000   0.0000000   0.0000000   0.0000000   0.0000000   0.0000000   0.0000000   0.0000000   0.0000000   0.0000000
 NQMom=    0.0000000   0.0000000   0.0000000   0.0000000   0.0000000   0.0000000   0.0000000   0.0000000   0.0000000   0.0000000
 NMagM=    2.7928460   0.0000000   2.7928460   2.7928460   0.0000000   2.7928460   2.7928460   0.0000000   2.7928460   2.7928460
 AtZNuc=   1.0000000   8.0000000   1.0000000   1.0000000   8.0000000   1.0000000   1.0000000   8.0000000   1.0000000   1.0000000

  Atom        41          42          43          44          45          46          47          48          49          50
 IAtWgt=          16           1           1          16           1           1          16           1           1          16
 AtmWgt=  15.9949146   1.0078250   1.0078250  15.9949146   1.0078250   1.0078250  15.9949146   1.0078250   1.0078250  15.9949146
 NucSpn=           0           1           1           0           1           1           0           1           1           0
 AtZEff=   0.0000000   0.0000000   0.0000000   0.0000000   0.0000000   0.0000000   0.0000000   0.0000000   0.0000000   0.0000000
 NQMom=    0.0000000   0.0000000   0.0000000   0.0000000   0.0000000   0.0000000   0.0000000   0.0000000   0.0000000   0.0000000
 NMagM=    0.0000000   2.7928460   2.7928460   0.0000000   2.7928460   2.7928460   0.0000000   2.7928460   2.7928460   0.0000000
 AtZNuc=   8.0000000   1.0000000   1.0000000   8.0000000   1.0000000   1.0000000   8.0000000   1.0000000   1.0000000   8.0000000

  Atom        51          52          53          54          55          56          57          58          59          60
 IAtWgt=           1           1          16           1           1          16           1           1          16           1
 AtmWgt=   1.0078250   1.0078250  15.9949146   1.0078250   1.0078250  15.9949146   1.0078250   1.0078250  15.9949146   1.0078250
 NucSpn=           1           1           0           1           1           0           1           1           0           1
 AtZEff=   0.0000000   0.0000000   0.0000000   0.0000000   0.0000000   0.0000000   0.0000000   0.0000000   0.0000000   0.0000000
 NQMom=    0.0000000   0.0000000   0.0000000   0.0000000   0.0000000   0.0000000   0.0000000   0.0000000   0.0000000   0.0000000
 NMagM=    2.7928460   2.7928460   0.0000000   2.7928460   2.7928460   0.0000000   2.7928460   2.7928460   0.0000000   2.7928460
 AtZNuc=   1.0000000   1.0000000   8.0000000   1.0000000   1.0000000   8.0000000   1.0000000   1.0000000   8.0000000   1.0000000

  Atom        61          62          63          64          65          66          67          68          69          70
 IAtWgt=           1          16           1           1          16           1           1          16           1           1
 AtmWgt=   1.0078250  15.9949146   1.0078250   1.0078250  15.9949146   1.0078250   1.0078250  15.9949146   1.0078250   1.0078250
 NucSpn=           1           0           1           1           0           1           1           0           1           1
 AtZEff=   0.0000000   0.0000000   0.0000000   0.0000000   0.0000000   0.0000000   0.0000000   0.0000000   0.0000000   0.0000000
 NQMom=    0.0000000   0.0000000   0.0000000   0.0000000   0.0000000   0.0000000   0.0000000   0.0000000   0.0000000   0.0000000
 NMagM=    2.7928460   0.0000000   2.7928460   2.7928460   0.0000000   2.7928460   2.7928460   0.0000000   2.7928460   2.7928460
 AtZNuc=   1.0000000   8.0000000   1.0000000   1.0000000   8.0000000   1.0000000   1.0000000   8.0000000   1.0000000   1.0000000

  Atom        71          72          73          74          75          76          77          78          79          80
 IAtWgt=          16           1           1          16           1           1          16           1           1          16
 AtmWgt=  15.9949146   1.0078250   1.0078250  15.9949146   1.0078250   1.0078250  15.9949146   1.0078250   1.0078250  15.9949146
 NucSpn=           0           1           1           0           1           1           0           1           1           0
 AtZEff=   0.0000000   0.0000000   0.0000000   0.0000000   0.0000000   0.0000000   0.0000000   0.0000000   0.0000000   0.0000000
 NQMom=    0.0000000   0.0000000   0.0000000   0.0000000   0.0000000   0.0000000   0.0000000   0.0000000   0.0000000   0.0000000
 NMagM=    0.0000000   2.7928460   2.7928460   0.0000000   2.7928460   2.7928460   0.0000000   2.7928460   2.7928460   0.0000000
 AtZNuc=   8.0000000   1.0000000   1.0000000   8.0000000   1.0000000   1.0000000   8.0000000   1.0000000   1.0000000   8.0000000

  Atom        81          82          83          84          85          86          87          88          89          90
 IAtWgt=           1           1          16           1           1          16           1           1          16           1
 AtmWgt=   1.0078250   1.0078250  15.9949146   1.0078250   1.0078250  15.9949146   1.0078250   1.0078250  15.9949146   1.0078250
 NucSpn=           1           1           0           1           1           0           1           1           0           1
 AtZEff=   0.0000000   0.0000000   0.0000000   0.0000000   0.0000000   0.0000000   0.0000000   0.0000000   0.0000000   0.0000000
 NQMom=    0.0000000   0.0000000   0.0000000   0.0000000   0.0000000   0.0000000   0.0000000   0.0000000   0.0000000   0.0000000
 NMagM=    2.7928460   2.7928460   0.0000000   2.7928460   2.7928460   0.0000000   2.7928460   2.7928460   0.0000000   2.7928460
 AtZNuc=   1.0000000   1.0000000   8.0000000   1.0000000   1.0000000   8.0000000   1.0000000   1.0000000   8.0000000   1.0000000

  Atom        91          92          93          94          95          96          97          98          99         100
 IAtWgt=           1          16           1           1          16           1           1          16           1           1
 AtmWgt=   1.0078250  15.9949146   1.0078250   1.0078250  15.9949146   1.0078250   1.0078250  15.9949146   1.0078250   1.0078250
 NucSpn=           1           0           1           1           0           1           1           0           1           1
 AtZEff=   0.0000000   0.0000000   0.0000000   0.0000000   0.0000000   0.0000000   0.0000000   0.0000000   0.0000000   0.0000000
 NQMom=    0.0000000   0.0000000   0.0000000   0.0000000   0.0000000   0.0000000   0.0000000   0.0000000   0.0000000   0.0000000
 NMagM=    2.7928460   0.0000000   2.7928460   2.7928460   0.0000000   2.7928460   2.7928460   0.0000000   2.7928460   2.7928460
 AtZNuc=   1.0000000   8.0000000   1.0000000   1.0000000   8.0000000   1.0000000   1.0000000   8.0000000   1.0000000   1.0000000

  Atom       101         102         103         104         105         106         107         108         109         110
 IAtWgt=          16           1           1          16           1           1          16           1           1          16
 AtmWgt=  15.9949146   1.0078250   1.0078250  15.9949146   1.0078250   1.0078250  15.9949146   1.0078250   1.0078250  15.9949146
 NucSpn=           0           1           1           0           1           1           0           1           1           0
 AtZEff=   0.0000000   0.0000000   0.0000000   0.0000000   0.0000000   0.0000000   0.0000000   0.0000000   0.0000000   0.0000000
 NQMom=    0.0000000   0.0000000   0.0000000   0.0000000   0.0000000   0.0000000   0.0000000   0.0000000   0.0000000   0.0000000
 NMagM=    0.0000000   2.7928460   2.7928460   0.0000000   2.7928460   2.7928460   0.0000000   2.7928460   2.7928460   0.0000000
 AtZNuc=   8.0000000   1.0000000   1.0000000   8.0000000   1.0000000   1.0000000   8.0000000   1.0000000   1.0000000   8.0000000

  Atom       111         112         113         114         115         116         117         118         119         120
 IAtWgt=           1           1          16           1           1          16           1           1          16           1
 AtmWgt=   1.0078250   1.0078250  15.9949146   1.0078250   1.0078250  15.9949146   1.0078250   1.0078250  15.9949146   1.0078250
 NucSpn=           1           1           0           1           1           0           1           1           0           1
 AtZEff=   0.0000000   0.0000000   0.0000000   0.0000000   0.0000000   0.0000000   0.0000000   0.0000000   0.0000000   0.0000000
 NQMom=    0.0000000   0.0000000   0.0000000   0.0000000   0.0000000   0.0000000   0.0000000   0.0000000   0.0000000   0.0000000
 NMagM=    2.7928460   2.7928460   0.0000000   2.7928460   2.7928460   0.0000000   2.7928460   2.7928460   0.0000000   2.7928460
 AtZNuc=   1.0000000   1.0000000   8.0000000   1.0000000   1.0000000   8.0000000   1.0000000   1.0000000   8.0000000   1.0000000

  Atom       121         122         123         124         125         126         127         128         129         130
 IAtWgt=           1          16           1           1          16           1           1          16           1           1
 AtmWgt=   1.0078250  15.9949146   1.0078250   1.0078250  15.9949146   1.0078250   1.0078250  15.9949146   1.0078250   1.0078250
 NucSpn=           1           0           1           1           0           1           1           0           1           1
 AtZEff=   0.0000000   0.0000000   0.0000000   0.0000000   0.0000000   0.0000000   0.0000000   0.0000000   0.0000000   0.0000000
 NQMom=    0.0000000   0.0000000   0.0000000   0.0000000   0.0000000   0.0000000   0.0000000   0.0000000   0.0000000   0.0000000
 NMagM=    2.7928460   0.0000000   2.7928460   2.7928460   0.0000000   2.7928460   2.7928460   0.0000000   2.7928460   2.7928460
 AtZNuc=   1.0000000   8.0000000   1.0000000   1.0000000   8.0000000   1.0000000   1.0000000   8.0000000   1.0000000   1.0000000

  Atom       131         132         133         134         135         136         137         138         139         140
 IAtWgt=          16           1           1          16           1           1          16           1           1          16
 AtmWgt=  15.9949146   1.0078250   1.0078250  15.9949146   1.0078250   1.0078250  15.9949146   1.0078250   1.0078250  15.9949146
 NucSpn=           0           1           1           0           1           1           0           1           1           0
 AtZEff=   0.0000000   0.0000000   0.0000000   0.0000000   0.0000000   0.0000000   0.0000000   0.0000000   0.0000000   0.0000000
 NQMom=    0.0000000   0.0000000   0.0000000   0.0000000   0.0000000   0.0000000   0.0000000   0.0000000   0.0000000   0.0000000
 NMagM=    0.0000000   2.7928460   2.7928460   0.0000000   2.7928460   2.7928460   0.0000000   2.7928460   2.7928460   0.0000000
 AtZNuc=   8.0000000   1.0000000   1.0000000   8.0000000   1.0000000   1.0000000   8.0000000   1.0000000   1.0000000   8.0000000

  Atom       141         142         143         144         145         146         147         148         149         150
 IAtWgt=           1           1          16           1           1          16           1           1          16           1
 AtmWgt=   1.0078250   1.0078250  15.9949146   1.0078250   1.0078250  15.9949146   1.0078250   1.0078250  15.9949146   1.0078250
 NucSpn=           1           1           0           1           1           0           1           1           0           1
 AtZEff=   0.0000000   0.0000000   0.0000000   0.0000000   0.0000000   0.0000000   0.0000000   0.0000000   0.0000000   0.0000000
 NQMom=    0.0000000   0.0000000   0.0000000   0.0000000   0.0000000   0.0000000   0.0000000   0.0000000   0.0000000   0.0000000
 NMagM=    2.7928460   2.7928460   0.0000000   2.7928460   2.7928460   0.0000000   2.7928460   2.7928460   0.0000000   2.7928460
 AtZNuc=   1.0000000   1.0000000   8.0000000   1.0000000   1.0000000   8.0000000   1.0000000   1.0000000   8.0000000   1.0000000

  Atom       151         152         153         154         155         156         157         158         159         160
 IAtWgt=           1          16           1           1          16           1           1          16           1           1
 AtmWgt=   1.0078250  15.9949146   1.0078250   1.0078250  15.9949146   1.0078250   1.0078250  15.9949146   1.0078250   1.0078250
 NucSpn=           1           0           1           1           0           1           1           0           1           1
 AtZEff=   0.0000000   0.0000000   0.0000000   0.0000000   0.0000000   0.0000000   0.0000000   0.0000000   0.0000000   0.0000000
 NQMom=    0.0000000   0.0000000   0.0000000   0.0000000   0.0000000   0.0000000   0.0000000   0.0000000   0.0000000   0.0000000
 NMagM=    2.7928460   0.0000000   2.7928460   2.7928460   0.0000000   2.7928460   2.7928460   0.0000000   2.7928460   2.7928460
 AtZNuc=   1.0000000   8.0000000   1.0000000   1.0000000   8.0000000   1.0000000   1.0000000   8.0000000   1.0000000   1.0000000

  Atom       161         162         163         164         165         166         167         168         169         170
 IAtWgt=          16           1           1          16           1           1          16           1           1          16
 AtmWgt=  15.9949146   1.0078250   1.0078250  15.9949146   1.0078250   1.0078250  15.9949146   1.0078250   1.0078250  15.9949146
 NucSpn=           0           1           1           0           1           1           0           1           1           0
 AtZEff=   0.0000000   0.0000000   0.0000000   0.0000000   0.0000000   0.0000000   0.0000000   0.0000000   0.0000000   0.0000000
 NQMom=    0.0000000   0.0000000   0.0000000   0.0000000   0.0000000   0.0000000   0.0000000   0.0000000   0.0000000   0.0000000
 NMagM=    0.0000000   2.7928460   2.7928460   0.0000000   2.7928460   2.7928460   0.0000000   2.7928460   2.7928460   0.0000000
 AtZNuc=   8.0000000   1.0000000   1.0000000   8.0000000   1.0000000   1.0000000   8.0000000   1.0000000   1.0000000   8.0000000

  Atom       171         172         173         174         175         176         177         178         179         180
 IAtWgt=           1           1          16           1           1          16           1           1          16           1
 AtmWgt=   1.0078250   1.0078250  15.9949146   1.0078250   1.0078250  15.9949146   1.0078250   1.0078250  15.9949146   1.0078250
 NucSpn=           1           1           0           1           1           0           1           1           0           1
 AtZEff=   0.0000000   0.0000000   0.0000000   0.0000000   0.0000000   0.0000000   0.0000000   0.0000000   0.0000000   0.0000000
 NQMom=    0.0000000   0.0000000   0.0000000   0.0000000   0.0000000   0.0000000   0.0000000   0.0000000   0.0000000   0.0000000
 NMagM=    2.7928460   2.7928460   0.0000000   2.7928460   2.7928460   0.0000000   2.7928460   2.7928460   0.0000000   2.7928460
 AtZNuc=   1.0000000   1.0000000   8.0000000   1.0000000   1.0000000   8.0000000   1.0000000   1.0000000   8.0000000   1.0000000

  Atom       181         182         183         184         185         186         187         188         189         190
 IAtWgt=           1          16           1           1          16           1           1          16           1           1
 AtmWgt=   1.0078250  15.9949146   1.0078250   1.0078250  15.9949146   1.0078250   1.0078250  15.9949146   1.0078250   1.0078250
 NucSpn=           1           0           1           1           0           1           1           0           1           1
 AtZEff=   0.0000000   0.0000000   0.0000000   0.0000000   0.0000000   0.0000000   0.0000000   0.0000000   0.0000000   0.0000000
 NQMom=    0.0000000   0.0000000   0.0000000   0.0000000   0.0000000   0.0000000   0.0000000   0.0000000   0.0000000   0.0000000
 NMagM=    2.7928460   0.0000000   2.7928460   2.7928460   0.0000000   2.7928460   2.7928460   0.0000000   2.7928460   2.7928460
 AtZNuc=   1.0000000   8.0000000   1.0000000   1.0000000   8.0000000   1.0000000   1.0000000   8.0000000   1.0000000   1.0000000

  Atom       191         192         193         194         195         196         197         198         199         200
 IAtWgt=          16           1           1          16           1           1          16           1           1          16
 AtmWgt=  15.9949146   1.0078250   1.0078250  15.9949146   1.0078250   1.0078250  15.9949146   1.0078250   1.0078250  15.9949146
 NucSpn=           0           1           1           0           1           1           0           1           1           0
 AtZEff=   0.0000000   0.0000000   0.0000000   0.0000000   0.0000000   0.0000000   0.0000000   0.0000000   0.0000000   0.0000000
 NQMom=    0.0000000   0.0000000   0.0000000   0.0000000   0.0000000   0.0000000   0.0000000   0.0000000   0.0000000   0.0000000
 NMagM=    0.0000000   2.7928460   2.7928460   0.0000000   2.7928460   2.7928460   0.0000000   2.7928460   2.7928460   0.0000000
 AtZNuc=   8.0000000   1.0000000   1.0000000   8.0000000   1.0000000   1.0000000   8.0000000   1.0000000   1.0000000   8.0000000

  Atom       201         202         203         204         205         206         207         208         209         210
 IAtWgt=           1           1          16           1           1          16           1           1          16           1
 AtmWgt=   1.0078250   1.0078250  15.9949146   1.0078250   1.0078250  15.9949146   1.0078250   1.0078250  15.9949146   1.0078250
 NucSpn=           1           1           0           1           1           0           1           1           0           1
 AtZEff=   0.0000000   0.0000000   0.0000000   0.0000000   0.0000000   0.0000000   0.0000000   0.0000000   0.0000000   0.0000000
 NQMom=    0.0000000   0.0000000   0.0000000   0.0000000   0.0000000   0.0000000   0.0000000   0.0000000   0.0000000   0.0000000
 NMagM=    2.7928460   2.7928460   0.0000000   2.7928460   2.7928460   0.0000000   2.7928460   2.7928460   0.0000000   2.7928460
 AtZNuc=   1.0000000   1.0000000   8.0000000   1.0000000   1.0000000   8.0000000   1.0000000   1.0000000   8.0000000   1.0000000

  Atom       211         212         213         214         215         216         217         218         219         220
 IAtWgt=           1          16           1           1          16           1           1          16           1           1
 AtmWgt=   1.0078250  15.9949146   1.0078250   1.0078250  15.9949146   1.0078250   1.0078250  15.9949146   1.0078250   1.0078250
 NucSpn=           1           0           1           1           0           1           1           0           1           1
 AtZEff=   0.0000000   0.0000000   0.0000000   0.0000000   0.0000000   0.0000000   0.0000000   0.0000000   0.0000000   0.0000000
 NQMom=    0.0000000   0.0000000   0.0000000   0.0000000   0.0000000   0.0000000   0.0000000   0.0000000   0.0000000   0.0000000
 NMagM=    2.7928460   0.0000000   2.7928460   2.7928460   0.0000000   2.7928460   2.7928460   0.0000000   2.7928460   2.7928460
 AtZNuc=   1.0000000   8.0000000   1.0000000   1.0000000   8.0000000   1.0000000   1.0000000   8.0000000   1.0000000   1.0000000

  Atom       221         222         223         224         225         226         227         228         229         230
 IAtWgt=          16           1           1          16           1           1          16           1           1          16
 AtmWgt=  15.9949146   1.0078250   1.0078250  15.9949146   1.0078250   1.0078250  15.9949146   1.0078250   1.0078250  15.9949146
 NucSpn=           0           1           1           0           1           1           0           1           1           0
 AtZEff=   0.0000000   0.0000000   0.0000000   0.0000000   0.0000000   0.0000000   0.0000000   0.0000000   0.0000000   0.0000000
 NQMom=    0.0000000   0.0000000   0.0000000   0.0000000   0.0000000   0.0000000   0.0000000   0.0000000   0.0000000   0.0000000
 NMagM=    0.0000000   2.7928460   2.7928460   0.0000000   2.7928460   2.7928460   0.0000000   2.7928460   2.7928460   0.0000000
 AtZNuc=   8.0000000   1.0000000   1.0000000   8.0000000   1.0000000   1.0000000   8.0000000   1.0000000   1.0000000   8.0000000

  Atom       231         232         233         234         235         236         237         238         239         240
 IAtWgt=           1           1          16           1           1          16           1           1          16           1
 AtmWgt=   1.0078250   1.0078250  15.9949146   1.0078250   1.0078250  15.9949146   1.0078250   1.0078250  15.9949146   1.0078250
 NucSpn=           1           1           0           1           1           0           1           1           0           1
 AtZEff=   0.0000000   0.0000000   0.0000000   0.0000000   0.0000000   0.0000000   0.0000000   0.0000000   0.0000000   0.0000000
 NQMom=    0.0000000   0.0000000   0.0000000   0.0000000   0.0000000   0.0000000   0.0000000   0.0000000   0.0000000   0.0000000
 NMagM=    2.7928460   2.7928460   0.0000000   2.7928460   2.7928460   0.0000000   2.7928460   2.7928460   0.0000000   2.7928460
 AtZNuc=   1.0000000   1.0000000   8.0000000   1.0000000   1.0000000   8.0000000   1.0000000   1.0000000   8.0000000   1.0000000

  Atom       241         242         243         244         245         246         247         248         249         250
 IAtWgt=           1          16           1           1          16           1           1          16           1           1
 AtmWgt=   1.0078250  15.9949146   1.0078250   1.0078250  15.9949146   1.0078250   1.0078250  15.9949146   1.0078250   1.0078250
 NucSpn=           1           0           1           1           0           1           1           0           1           1
 AtZEff=   0.0000000   0.0000000   0.0000000   0.0000000   0.0000000   0.0000000   0.0000000   0.0000000   0.0000000   0.0000000
 NQMom=    0.0000000   0.0000000   0.0000000   0.0000000   0.0000000   0.0000000   0.0000000   0.0000000   0.0000000   0.0000000
 NMagM=    2.7928460   0.0000000   2.7928460   2.7928460   0.0000000   2.7928460   2.7928460   0.0000000   2.7928460   2.7928460
 AtZNuc=   1.0000000   8.0000000   1.0000000   1.0000000   8.0000000   1.0000000   1.0000000   8.0000000   1.0000000   1.0000000

  Atom       251         252         253         254         255         256         257         258         259         260
 IAtWgt=          16           1           1          16           1           1          16           1           1          16
 AtmWgt=  15.9949146   1.0078250   1.0078250  15.9949146   1.0078250   1.0078250  15.9949146   1.0078250   1.0078250  15.9949146
 NucSpn=           0           1           1           0           1           1           0           1           1           0
 AtZEff=   0.0000000   0.0000000   0.0000000   0.0000000   0.0000000   0.0000000   0.0000000   0.0000000   0.0000000   0.0000000
 NQMom=    0.0000000   0.0000000   0.0000000   0.0000000   0.0000000   0.0000000   0.0000000   0.0000000   0.0000000   0.0000000
 NMagM=    0.0000000   2.7928460   2.7928460   0.0000000   2.7928460   2.7928460   0.0000000   2.7928460   2.7928460   0.0000000
 AtZNuc=   8.0000000   1.0000000   1.0000000   8.0000000   1.0000000   1.0000000   8.0000000   1.0000000   1.0000000   8.0000000

  Atom       261         262         263         264         265         266         267         268         269         270
 IAtWgt=           1           1          16           1           1          16           1           1          16           1
 AtmWgt=   1.0078250   1.0078250  15.9949146   1.0078250   1.0078250  15.9949146   1.0078250   1.0078250  15.9949146   1.0078250
 NucSpn=           1           1           0           1           1           0           1           1           0           1
 AtZEff=   0.0000000   0.0000000   0.0000000   0.0000000   0.0000000   0.0000000   0.0000000   0.0000000   0.0000000   0.0000000
 NQMom=    0.0000000   0.0000000   0.0000000   0.0000000   0.0000000   0.0000000   0.0000000   0.0000000   0.0000000   0.0000000
 NMagM=    2.7928460   2.7928460   0.0000000   2.7928460   2.7928460   0.0000000   2.7928460   2.7928460   0.0000000   2.7928460
 AtZNuc=   1.0000000   1.0000000   8.0000000   1.0000000   1.0000000   8.0000000   1.0000000   1.0000000   8.0000000   1.0000000

  Atom       271         272         273         274         275         276         277         278         279         280
 IAtWgt=           1          16           1           1          16           1           1          16           1           1
 AtmWgt=   1.0078250  15.9949146   1.0078250   1.0078250  15.9949146   1.0078250   1.0078250  15.9949146   1.0078250   1.0078250
 NucSpn=           1           0           1           1           0           1           1           0           1           1
 AtZEff=   0.0000000   0.0000000   0.0000000   0.0000000   0.0000000   0.0000000   0.0000000   0.0000000   0.0000000   0.0000000
 NQMom=    0.0000000   0.0000000   0.0000000   0.0000000   0.0000000   0.0000000   0.0000000   0.0000000   0.0000000   0.0000000
 NMagM=    2.7928460   0.0000000   2.7928460   2.7928460   0.0000000   2.7928460   2.7928460   0.0000000   2.7928460   2.7928460
 AtZNuc=   1.0000000   8.0000000   1.0000000   1.0000000   8.0000000   1.0000000   1.0000000   8.0000000   1.0000000   1.0000000

  Atom       281         282         283         284         285         286         287         288         289         290
 IAtWgt=          16           1           1          16           1           1          16           1           1          16
 AtmWgt=  15.9949146   1.0078250   1.0078250  15.9949146   1.0078250   1.0078250  15.9949146   1.0078250   1.0078250  15.9949146
 NucSpn=           0           1           1           0           1           1           0           1           1           0
 AtZEff=   0.0000000   0.0000000   0.0000000   0.0000000   0.0000000   0.0000000   0.0000000   0.0000000   0.0000000   0.0000000
 NQMom=    0.0000000   0.0000000   0.0000000   0.0000000   0.0000000   0.0000000   0.0000000   0.0000000   0.0000000   0.0000000
 NMagM=    0.0000000   2.7928460   2.7928460   0.0000000   2.7928460   2.7928460   0.0000000   2.7928460   2.7928460   0.0000000
 AtZNuc=   8.0000000   1.0000000   1.0000000   8.0000000   1.0000000   1.0000000   8.0000000   1.0000000   1.0000000   8.0000000

  Atom       291         292         293         294         295         296         297         298         299         300
 IAtWgt=           1           1          16           1           1          16           1           1          16           1
 AtmWgt=   1.0078250   1.0078250  15.9949146   1.0078250   1.0078250  15.9949146   1.0078250   1.0078250  15.9949146   1.0078250
 NucSpn=           1           1           0           1           1           0           1           1           0           1
 AtZEff=   0.0000000   0.0000000   0.0000000   0.0000000   0.0000000   0.0000000   0.0000000   0.0000000   0.0000000   0.0000000
 NQMom=    0.0000000   0.0000000   0.0000000   0.0000000   0.0000000   0.0000000   0.0000000   0.0000000   0.0000000   0.0000000
 NMagM=    2.7928460   2.7928460   0.0000000   2.7928460   2.7928460   0.0000000   2.7928460   2.7928460   0.0000000   2.7928460
 AtZNuc=   1.0000000   1.0000000   8.0000000   1.0000000   1.0000000   8.0000000   1.0000000   1.0000000   8.0000000   1.0000000

  Atom       301         302         303         304         305         306         307         308         309         310
 IAtWgt=           1          16           1           1          16           1           1          16           1           1
 AtmWgt=   1.0078250  15.9949146   1.0078250   1.0078250  15.9949146   1.0078250   1.0078250  15.9949146   1.0078250   1.0078250
 NucSpn=           1           0           1           1           0           1           1           0           1           1
 AtZEff=   0.0000000   0.0000000   0.0000000   0.0000000   0.0000000   0.0000000   0.0000000   0.0000000   0.0000000   0.0000000
 NQMom=    0.0000000   0.0000000   0.0000000   0.0000000   0.0000000   0.0000000   0.0000000   0.0000000   0.0000000   0.0000000
 NMagM=    2.7928460   0.0000000   2.7928460   2.7928460   0.0000000   2.7928460   2.7928460   0.0000000   2.7928460   2.7928460
 AtZNuc=   1.0000000   8.0000000   1.0000000   1.0000000   8.0000000   1.0000000   1.0000000   8.0000000   1.0000000   1.0000000

  Atom       311         312         313         314         315         316         317         318         319         320
 IAtWgt=          16           1           1          16           1           1          16           1           1          16
 AtmWgt=  15.9949146   1.0078250   1.0078250  15.9949146   1.0078250   1.0078250  15.9949146   1.0078250   1.0078250  15.9949146
 NucSpn=           0           1           1           0           1           1           0           1           1           0
 AtZEff=   0.0000000   0.0000000   0.0000000   0.0000000   0.0000000   0.0000000   0.0000000   0.0000000   0.0000000   0.0000000
 NQMom=    0.0000000   0.0000000   0.0000000   0.0000000   0.0000000   0.0000000   0.0000000   0.0000000   0.0000000   0.0000000
 NMagM=    0.0000000   2.7928460   2.7928460   0.0000000   2.7928460   2.7928460   0.0000000   2.7928460   2.7928460   0.0000000
 AtZNuc=   8.0000000   1.0000000   1.0000000   8.0000000   1.0000000   1.0000000   8.0000000   1.0000000   1.0000000   8.0000000

  Atom       321         322         323         324         325         326         327         328         329         330
 IAtWgt=           1           1          16           1           1          16           1           1          16           1
 AtmWgt=   1.0078250   1.0078250  15.9949146   1.0078250   1.0078250  15.9949146   1.0078250   1.0078250  15.9949146   1.0078250
 NucSpn=           1           1           0           1           1           0           1           1           0           1
 AtZEff=   0.0000000   0.0000000   0.0000000   0.0000000   0.0000000   0.0000000   0.0000000   0.0000000   0.0000000   0.0000000
 NQMom=    0.0000000   0.0000000   0.0000000   0.0000000   0.0000000   0.0000000   0.0000000   0.0000000   0.0000000   0.0000000
 NMagM=    2.7928460   2.7928460   0.0000000   2.7928460   2.7928460   0.0000000   2.7928460   2.7928460   0.0000000   2.7928460
 AtZNuc=   1.0000000   1.0000000   8.0000000   1.0000000   1.0000000   8.0000000   1.0000000   1.0000000   8.0000000   1.0000000

  Atom       331         332         333         334         335         336         337         338         339         340
 IAtWgt=           1          16           1           1          16           1           1          16           1           1
 AtmWgt=   1.0078250  15.9949146   1.0078250   1.0078250  15.9949146   1.0078250   1.0078250  15.9949146   1.0078250   1.0078250
 NucSpn=           1           0           1           1           0           1           1           0           1           1
 AtZEff=   0.0000000   0.0000000   0.0000000   0.0000000   0.0000000   0.0000000   0.0000000   0.0000000   0.0000000   0.0000000
 NQMom=    0.0000000   0.0000000   0.0000000   0.0000000   0.0000000   0.0000000   0.0000000   0.0000000   0.0000000   0.0000000
 NMagM=    2.7928460   0.0000000   2.7928460   2.7928460   0.0000000   2.7928460   2.7928460   0.0000000   2.7928460   2.7928460
 AtZNuc=   1.0000000   8.0000000   1.0000000   1.0000000   8.0000000   1.0000000   1.0000000   8.0000000   1.0000000   1.0000000

  Atom       341         342         343         344         345         346         347         348         349         350
 IAtWgt=          16           1           1          16           1           1          16           1           1          16
 AtmWgt=  15.9949146   1.0078250   1.0078250  15.9949146   1.0078250   1.0078250  15.9949146   1.0078250   1.0078250  15.9949146
 NucSpn=           0           1           1           0           1           1           0           1           1           0
 AtZEff=   0.0000000   0.0000000   0.0000000   0.0000000   0.0000000   0.0000000   0.0000000   0.0000000   0.0000000   0.0000000
 NQMom=    0.0000000   0.0000000   0.0000000   0.0000000   0.0000000   0.0000000   0.0000000   0.0000000   0.0000000   0.0000000
 NMagM=    0.0000000   2.7928460   2.7928460   0.0000000   2.7928460   2.7928460   0.0000000   2.7928460   2.7928460   0.0000000
 AtZNuc=   8.0000000   1.0000000   1.0000000   8.0000000   1.0000000   1.0000000   8.0000000   1.0000000   1.0000000   8.0000000

  Atom       351         352         353         354         355         356         357         358         359         360
 IAtWgt=           1           1          16           1           1          16           1           1          16           1
 AtmWgt=   1.0078250   1.0078250  15.9949146   1.0078250   1.0078250  15.9949146   1.0078250   1.0078250  15.9949146   1.0078250
 NucSpn=           1           1           0           1           1           0           1           1           0           1
 AtZEff=   0.0000000   0.0000000   0.0000000   0.0000000   0.0000000   0.0000000   0.0000000   0.0000000   0.0000000   0.0000000
 NQMom=    0.0000000   0.0000000   0.0000000   0.0000000   0.0000000   0.0000000   0.0000000   0.0000000   0.0000000   0.0000000
 NMagM=    2.7928460   2.7928460   0.0000000   2.7928460   2.7928460   0.0000000   2.7928460   2.7928460   0.0000000   2.7928460
 AtZNuc=   1.0000000   1.0000000   8.0000000   1.0000000   1.0000000   8.0000000   1.0000000   1.0000000   8.0000000   1.0000000

  Atom       361         362         363         364         365         366         367         368         369         370
 IAtWgt=           1          16           1           1          16           1           1          16           1           1
 AtmWgt=   1.0078250  15.9949146   1.0078250   1.0078250  15.9949146   1.0078250   1.0078250  15.9949146   1.0078250   1.0078250
 NucSpn=           1           0           1           1           0           1           1           0           1           1
 AtZEff=   0.0000000   0.0000000   0.0000000   0.0000000   0.0000000   0.0000000   0.0000000   0.0000000   0.0000000   0.0000000
 NQMom=    0.0000000   0.0000000   0.0000000   0.0000000   0.0000000   0.0000000   0.0000000   0.0000000   0.0000000   0.0000000
 NMagM=    2.7928460   0.0000000   2.7928460   2.7928460   0.0000000   2.7928460   2.7928460   0.0000000   2.7928460   2.7928460
 AtZNuc=   1.0000000   8.0000000   1.0000000   1.0000000   8.0000000   1.0000000   1.0000000   8.0000000   1.0000000   1.0000000

  Atom       371         372         373         374         375         376         377         378         379         380
 IAtWgt=          16           1           1          16           1           1          16           1           1          16
 AtmWgt=  15.9949146   1.0078250   1.0078250  15.9949146   1.0078250   1.0078250  15.9949146   1.0078250   1.0078250  15.9949146
 NucSpn=           0           1           1           0           1           1           0           1           1           0
 AtZEff=   0.0000000   0.0000000   0.0000000   0.0000000   0.0000000   0.0000000   0.0000000   0.0000000   0.0000000   0.0000000
 NQMom=    0.0000000   0.0000000   0.0000000   0.0000000   0.0000000   0.0000000   0.0000000   0.0000000   0.0000000   0.0000000
 NMagM=    0.0000000   2.7928460   2.7928460   0.0000000   2.7928460   2.7928460   0.0000000   2.7928460   2.7928460   0.0000000
 AtZNuc=   8.0000000   1.0000000   1.0000000   8.0000000   1.0000000   1.0000000   8.0000000   1.0000000   1.0000000   8.0000000

  Atom       381         382         383         384         385
 IAtWgt=           1           1          16           1           1
 AtmWgt=   1.0078250   1.0078250  15.9949146   1.0078250   1.0078250
 NucSpn=           1           1           0           1           1
 AtZEff=   0.0000000   0.0000000   0.0000000   0.0000000   0.0000000
 NQMom=    0.0000000   0.0000000   0.0000000   0.0000000   0.0000000
 NMagM=    2.7928460   2.7928460   0.0000000   2.7928460   2.7928460
 AtZNuc=   1.0000000   1.0000000   8.0000000   1.0000000   1.0000000
 Leave Link  101 at Sun May  6 15:19:36 2018, MaxMem= 14763950080 cpu:        37.9
 (Enter /cm/shared/gaussian/g09.e01/intel64-sandybridge/g09/l103.exe)

 GradGradGradGradGradGradGradGradGradGradGradGradGradGradGradGradGradGrad
 Berny optimization.
 Initialization pass.
 Trust Radius=3.00D-01 FncErr=1.00D-07 GrdErr=1.00D-07
 Number of steps in this run=      2 maximum allowed number of steps=      2.
 GradGradGradGradGradGradGradGradGradGradGradGradGradGradGradGradGradGrad

 Leave Link  103 at Sun May  6 15:19:36 2018, MaxMem= 14763950080 cpu:         6.2
 (Enter /cm/shared/gaussian/g09.e01/intel64-sandybridge/g09/l202.exe)
 Symmetry turned off by external request.
 Stoichiometry    BrH256O128(1-)
 Framework group  C1[X(BrH256O128)]
 Deg. of freedom  1149
 Full point group                 C1      NOp   1
                          Input orientation:                          
 ---------------------------------------------------------------------
 Center     Atomic      Atomic             Coordinates (Angstroms)
 Number     Number       Type             X           Y           Z
 ---------------------------------------------------------------------
      1         35           0       20.000000   20.000000   20.000000
      2          8           0       18.480000   22.100000   21.900000
      3          1           0       17.730000   21.990000   21.320000
      4          1           0       19.190000   21.630000   21.470000
      5          8           0       21.570000   17.030000   19.490000
      6          1           0       21.160000   17.890000   19.580000
      7          1           0       21.940000   16.860000   20.360000
      8          8           0       16.690000   21.020000   20.320000
      9          1           0       17.560000   20.660000   20.120000
     10          1           0       16.200000   20.930000   19.500000
     11          8           0       20.470000   19.260000   23.310000
     12          1           0       21.120000   18.600000   23.540000
     13          1           0       20.690000   19.520000   22.420000
     14          8           0       23.350000   20.550000   18.650000
     15          1           0       22.470000   20.290000   18.900000
     16          1           0       23.740000   19.770000   18.270000
     17          8           0       18.800000   21.870000   16.730000
     18          1           0       19.220000   21.630000   17.560000
     19          1           0       18.460000   21.040000   16.390000
     20          8           0       17.860000   17.190000   21.870000
     21          1           0       18.270000   17.900000   21.380000
     22          1           0       16.980000   17.120000   21.500000
     23          8           0       22.440000   22.420000   16.800000
     24          1           0       22.970000   22.130000   16.060000
     25          1           0       22.660000   21.810000   17.500000
     26          8           0       17.100000   17.250000   16.520000
     27          1           0       17.820000   17.540000   17.070000
     28          1           0       16.580000   18.040000   16.370000
     29          8           0       18.440000   20.070000   24.950000
     30          1           0       18.860000   20.170000   25.800000
     31          1           0       19.160000   19.910000   24.340000
     32          8           0       20.850000   19.840000   15.560000
     33          1           0       20.470000   20.710000   15.620000
     34          1           0       21.740000   19.990000   15.230000
     35          8           0       24.650000   22.520000   19.980000
     36          1           0       24.020000   21.980000   19.510000
     37          1           0       24.520000   23.400000   19.630000
     38          8           0       22.810000   16.330000   17.230000
     39          1           0       23.570000   16.920000   17.180000
     40          1           0       22.420000   16.510000   18.080000
     41          8           0       16.850000   22.260000   24.080000
     42          1           0       16.860000   21.530000   24.700000
     43          1           0       17.360000   21.960000   23.330000
     44          8           0       20.170000   14.520000   19.510000
     45          1           0       20.440000   15.360000   19.140000
     46          1           0       19.240000   14.450000   19.290000
     47          8           0       22.520000   23.410000   22.610000
     48          1           0       21.670000   23.280000   23.040000
     49          1           0       22.960000   22.560000   22.680000
     50          8           0       19.530000   16.270000   23.830000
     51          1           0       19.010000   16.480000   23.050000
     52          1           0       20.410000   16.600000   23.610000
     53          8           0       16.250000   22.700000   17.360000
     54          1           0       16.010000   23.590000   17.090000
     55          1           0       17.190000   22.640000   17.170000
     56          8           0       21.250000   24.620000   17.930000
     57          1           0       21.650000   23.850000   17.530000
     58          1           0       21.790000   24.820000   18.690000
     59          8           0       20.390000   22.360000   24.890000
     60          1           0       19.470000   22.120000   24.980000
     61          1           0       20.820000   21.570000   24.580000
     62          8           0       22.230000   17.300000   23.890000
     63          1           0       22.580000   16.600000   24.450000
     64          1           0       22.610000   17.120000   23.030000
     65          8           0       20.800000   17.060000   15.440000
     66          1           0       21.580000   16.960000   15.990000
     67          1           0       20.560000   17.980000   15.520000
     68          8           0       18.740000   24.520000   23.540000
     69          1           0       18.240000   24.520000   24.360000
     70          1           0       18.570000   23.660000   23.160000
     71          8           0       18.720000   25.280000   18.520000
     72          1           0       19.520000   24.770000   18.410000
     73          1           0       18.480000   25.170000   19.440000
     74          8           0       23.440000   16.670000   21.610000
     75          1           0       24.160000   17.010000   21.070000
     76          1           0       23.800000   15.880000   22.020000
     77          8           0       15.520000   17.710000   20.600000
     78          1           0       15.090000   17.610000   19.750000
     79          1           0       14.870000   18.120000   21.160000
     80          8           0       22.880000   24.830000   20.190000
     81          1           0       22.840000   24.240000   20.940000
     82          1           0       23.350000   25.600000   20.510000
     83          8           0       24.770000   21.170000   22.530000
     84          1           0       25.470000   21.520000   23.070000
     85          1           0       24.720000   21.760000   21.780000
     86          8           0       23.850000   19.650000   24.450000
     87          1           0       23.330000   18.950000   24.060000
     88          1           0       24.440000   19.920000   23.760000
     89          8           0       14.250000   21.250000   21.990000
     90          1           0       15.140000   21.530000   21.810000
     91          1           0       13.860000   21.110000   21.130000
     92          8           0       16.840000   20.350000   15.620000
     93          1           0       15.890000   20.490000   15.640000
     94          1           0       17.040000   20.160000   14.710000
     95          8           0       19.350000   22.420000   14.140000
     96          1           0       18.960000   22.230000   15.000000
     97          1           0       20.010000   23.080000   14.320000
     98          8           0       24.810000   18.120000   17.440000
     99          1           0       24.760000   18.630000   16.630000
    100          1           0       25.640000   18.380000   17.840000
    101          8           0       14.270000   21.560000   18.740000
    102          1           0       14.900000   21.980000   18.150000
    103          1           0       13.720000   22.270000   19.060000
    104          8           0       17.680000   25.930000   21.300000
    105          1           0       18.270000   25.470000   21.900000
    106          1           0       17.180000   26.520000   21.860000
    107          8           0       15.670000   24.340000   22.680000
    108          1           0       16.070000   24.420000   21.820000
    109          1           0       16.120000   23.600000   23.090000
    110          8           0       25.740000   17.500000   20.470000
    111          1           0       26.360000   17.920000   19.870000
    112          1           0       26.100000   16.620000   20.610000
    113          8           0       16.410000   18.100000   25.960000
    114          1           0       16.400000   18.590000   26.790000
    115          1           0       16.850000   18.680000   25.340000
    116          8           0       19.050000   17.070000   26.450000
    117          1           0       19.440000   17.020000   25.580000
    118          1           0       18.150000   17.340000   26.300000
    119          8           0       21.640000   14.080000   16.640000
    120          1           0       21.030000   14.130000   15.910000
    121          1           0       22.120000   14.910000   16.620000
    122          8           0       16.840000   14.760000   15.820000
    123          1           0       17.020000   15.630000   16.160000
    124          1           0       16.280000   14.900000   15.060000
    125          8           0       16.130000   15.250000   24.070000
    126          1           0       16.670000   15.810000   24.640000
    127          1           0       16.180000   15.670000   23.210000
    128          8           0       14.440000   16.900000   18.110000
    129          1           0       14.340000   17.380000   17.290000
    130          1           0       14.570000   15.990000   17.850000
    131          8           0       23.650000   21.210000   14.550000
    132          1           0       23.290000   20.880000   13.730000
    133          1           0       24.370000   21.780000   14.280000
    134          8           0       21.910000   24.030000   14.280000
    135          1           0       22.480000   23.650000   14.940000
    136          1           0       22.380000   23.900000   13.450000
    137          8           0       18.600000   17.490000   13.010000
    138          1           0       19.150000   17.880000   12.330000
    139          1           0       19.140000   17.500000   13.800000
    140          8           0       21.060000   26.070000   24.030000
    141          1           0       21.210000   26.670000   23.300000
    142          1           0       20.260000   25.600000   23.790000
    143          8           0       12.790000   19.530000   19.680000
    144          1           0       13.110000   18.700000   19.330000
    145          1           0       13.280000   20.190000   19.190000
    146          8           0       17.260000   13.890000   18.830000
    147          1           0       16.330000   14.070000   18.910000
    148          1           0       17.430000   13.880000   17.890000
    149          8           0       21.950000   24.350000   25.760000
    150          1           0       21.540000   24.910000   25.100000
    151          1           0       21.520000   23.500000   25.640000
    152          8           0       21.010000   12.550000   21.510000
    153          1           0       20.650000   13.280000   21.010000
    154          1           0       21.150000   11.860000   20.860000
    155          8           0       19.710000   14.530000   14.640000
    156          1           0       19.200000   15.140000   15.180000
    157          1           0       19.100000   13.830000   14.420000
    158          8           0       23.180000   13.050000   18.600000
    159          1           0       22.860000   12.230000   18.210000
    160          1           0       22.490000   13.680000   18.460000
    161          8           0       21.120000   27.460000   18.080000
    162          1           0       20.650000   26.640000   17.950000
    163          1           0       20.500000   28.020000   18.560000
    164          8           0       27.460000   22.530000   19.760000
    165          1           0       27.630000   21.670000   20.150000
    166          1           0       26.510000   22.630000   19.790000
    167          8           0       17.100000   26.920000   17.350000
    168          1           0       16.650000   27.330000   18.090000
    169          1           0       17.710000   26.310000   17.760000
    170          8           0       22.310000   15.750000   13.750000
    171          1           0       22.400000   14.850000   14.080000
    172          1           0       21.610000   16.130000   14.280000
    173          8           0       19.150000   14.060000   25.380000
    174          1           0       19.080000   13.430000   24.660000
    175          1           0       19.340000   14.890000   24.950000
    176          8           0       22.770000   18.760000   13.410000
    177          1           0       23.470000   18.790000   12.760000
    178          1           0       22.770000   17.850000   13.720000
    179          8           0       16.630000   12.810000   21.050000
    180          1           0       17.420000   12.300000   21.210000
    181          1           0       16.910000   13.470000   20.410000
    182          8           0       24.510000   20.850000   26.710000
    183          1           0       23.720000   20.930000   27.240000
    184          1           0       24.220000   20.390000   25.910000
    185          8           0       13.230000   20.650000   24.360000
    186          1           0       13.550000   20.790000   23.470000
    187          1           0       13.640000   21.330000   24.880000
    188          8           0       26.540000   22.180000   16.680000
    189          1           0       26.150000   22.960000   17.090000
    190          1           0       26.950000   21.710000   17.410000
    191          8           0       19.270000   20.960000   11.830000
    192          1           0       19.320000   21.360000   12.700000
    193          1           0       18.480000   21.340000   11.450000
    194          8           0       13.840000   18.860000   15.920000
    195          1           0       13.420000   19.720000   15.940000
    196          1           0       13.190000   18.280000   15.510000
    197          8           0       19.320000   20.620000   27.480000
    198          1           0       18.930000   21.490000   27.550000
    199          1           0       19.230000   20.250000   28.360000
    200          8           0       25.840000   24.890000   17.420000
    201          1           0       26.210000   25.320000   16.650000
    202          1           0       24.950000   25.220000   17.470000
    203          8           0       25.420000   17.770000   26.070000
    204          1           0       24.680000   17.160000   26.170000
    205          1           0       25.100000   18.440000   25.460000
    206          8           0       14.620000   22.780000   14.400000
    207          1           0       14.430000   23.480000   13.780000
[...]
   Z335      44.61643   0.00196   0.00000   0.00054   0.00108  44.61751
   X336      41.57397  -0.00353   0.00000   0.00056   0.00074  41.57472
   Y336      22.46884   0.00666   0.00000   0.00560   0.00574  22.47459
   Z336      43.48260  -0.00583   0.00000  -0.00452  -0.00400  43.47860
   X337      42.55663  -0.00317   0.00000  -0.00428  -0.00406  42.55257
   Y337      22.54443   0.00220   0.00000   0.00032   0.00058  22.54501
   Z337      46.16601   0.00392   0.00000   0.00243   0.00294  46.16895
   X338      52.55328  -0.00039   0.00000   0.00394   0.00393  52.55721
   Y338      45.84476   0.00199   0.00000  -0.00211  -0.00195  45.84280
   Z338      41.76295   0.00994   0.00000   0.00402   0.00345  41.76640
   X339      52.87454  -0.00186   0.00000  -0.00589  -0.00590  52.86863
   Y339      44.67313  -0.00898   0.00000  -0.00546  -0.00537  44.66776
   Z339      40.42124  -0.01741   0.00000  -0.01729  -0.01781  40.40343
   X340      53.13910  -0.00023   0.00000  -0.00211  -0.00213  53.13697
   Y340      47.43213   0.00565   0.00000   0.00495   0.00508  47.43720
   Z340      41.12044  -0.00129   0.00000   0.00035  -0.00029  41.12015
   X341      29.34745  -0.00323   0.00000  -0.00004   0.00002  29.34746
   Y341      23.14915  -0.02139   0.00000  -0.01864  -0.01904  23.13010
   Z341      32.38991   0.00037   0.00000  -0.01130  -0.01066  32.37925
   X342      27.87346   0.00676   0.00000   0.01262   0.01268  27.88614
   Y342      24.07511   0.00242   0.00000   0.00072   0.00033  24.07544
   Z342      32.90013   0.00021   0.00000   0.00069   0.00130  32.90143
   X343      30.25452   0.00426   0.00000   0.00028   0.00031  30.25483
   Y343      24.26408   0.01466   0.00000   0.01197   0.01153  24.27561
   Z343      31.31276  -0.01155   0.00000  -0.00954  -0.00896  31.30380
   X344      19.67205  -0.01151   0.00000  -0.01143  -0.01138  19.66067
   Y344      36.05597  -0.00113   0.00000   0.00128   0.00115  36.05713
   Z344      40.91257  -0.00131   0.00000  -0.00746  -0.00725  40.90532
   X345      21.18383   0.01020   0.00000   0.00881   0.00885  21.19268
   Y345      36.01818  -0.00213   0.00000  -0.00338  -0.00354  36.01464
   Z345      39.91102  -0.00069   0.00000   0.00411   0.00431  39.91533
   X346      19.40749   0.00119   0.00000   0.00230   0.00234  19.40983
   Y346      37.81342   0.00413   0.00000   0.00395   0.00383  37.81725
   Z346      41.25272   0.00450   0.00000   0.00688   0.00702  41.25975
   X347      35.20560   0.00077   0.00000   0.00108   0.00110  35.20670
   Y347      21.92082  -0.00114   0.00000   0.00409   0.00359  21.92442
   Z347      29.23406  -0.01458   0.00000  -0.01154  -0.01092  29.22314
   X348      34.94104  -0.00071   0.00000  -0.00048  -0.00044  34.94060
   Y348      22.69561   0.00291   0.00000   0.00012  -0.00031  22.69530
   Z348      30.84033   0.01115   0.00000   0.00584   0.00643  30.84676
   X349      36.69848  -0.00022   0.00000  -0.00093  -0.00090  36.69758
   Y349      20.90037   0.00164   0.00000   0.00290   0.00242  20.90279
   Z349      29.46083   0.00191   0.00000   0.00128   0.00192  29.46275
   X350      30.36790   0.00481   0.00000   0.00507   0.00495  30.37285
   Y350      53.87609   0.00515   0.00000  -0.00009  -0.00028  53.87582
   Z350      37.47327  -0.01012   0.00000  -0.00655  -0.00719  37.46608
   X351      31.10489   0.00122   0.00000  -0.00116  -0.00125  31.10364
   Y351      53.29028  -0.00438   0.00000  -0.00313  -0.00325  53.28702
   Z351      39.02284   0.01009   0.00000   0.00825   0.00763  39.03047
   X352      28.85612  -0.00686   0.00000  -0.00491  -0.00502  28.85109
   Y352      52.89343  -0.00430   0.00000  -0.00213  -0.00233  52.89110
   Z352      37.30319   0.00133   0.00000   0.00229   0.00171  37.30490
   X353      48.50927   0.00745   0.00000   0.01399   0.01409  48.52336
   Y353      43.91724   0.02189   0.00000   0.01235   0.01278  43.93002
   Z353      49.41634  -0.01290   0.00000  -0.00504  -0.00548  49.41086
   X354      48.71714  -0.01448   0.00000  -0.02707  -0.02695  48.69019
   Y354      42.21648  -0.02685   0.00000  -0.01962  -0.01916  42.19732
   Z354      49.96436   0.00888   0.00000   0.00528   0.00491  49.96927
   X355      48.15022  -0.00083   0.00000  -0.00030  -0.00019  48.15003
   Y355      44.86210   0.00438   0.00000   0.00496   0.00546  44.86755
   Z355      50.90922   0.00592   0.00000   0.00417   0.00369  50.91291
   X356      46.09042   0.01079   0.00000   0.00559   0.00560  46.09602
   Y356      23.99952  -0.00531   0.00000  -0.00582  -0.00622  23.99330
   Z356      29.38524  -0.01434   0.00000  -0.00930  -0.00889  29.37635
   X357      45.25894  -0.00733   0.00000  -0.00232  -0.00229  45.25665
   Y357      24.16960   0.00838   0.00000   0.01224   0.01189  24.18149
   Z357      30.97261   0.01338   0.00000   0.00655   0.00696  30.97958
   X358      44.76761  -0.00589   0.00000  -0.00733  -0.00733  44.76028
   Y358      24.16960   0.00034   0.00000   0.00048   0.00001  24.16961
   Z358      28.15692   0.00152   0.00000   0.00240   0.00282  28.15974
   X359      41.91413   0.01205   0.00000   0.00519   0.00522  41.91935
   Y359      51.85409   0.01663   0.00000   0.01548   0.01586  51.86994
   Z359      49.28406  -0.00077   0.00000   0.00287   0.00218  49.28624
   X360      40.93147  -0.00526   0.00000  -0.00061  -0.00058  40.93088
   Y360      50.98481  -0.00545   0.00000  -0.00225  -0.00193  50.98288
   Z360      48.03684  -0.00527   0.00000  -0.00067  -0.00131  48.03553
   X361      41.17713  -0.00367   0.00000   0.00054   0.00060  41.17773
   Y361      51.38165  -0.00850   0.00000  -0.00989  -0.00945  51.37220
   Z361      50.85253   0.01155   0.00000   0.00892   0.00826  50.86079
   X362      20.35235  -0.00130   0.00000  -0.00165  -0.00157  20.35078
   Y362      30.80254  -0.01240   0.00000  -0.00862  -0.00878  30.79376
   Z362      39.98660  -0.01373   0.00000  -0.01304  -0.01261  39.97399
   X363      21.92082   0.00056   0.00000  -0.00345  -0.00337  21.91745
   Y363      31.69071   0.00551   0.00000   0.00406   0.00392  31.69463
   Z363      40.21337   0.00685   0.00000   0.00802   0.00839  40.22176
   X364      19.23741   0.00137   0.00000   0.00594   0.00603  19.24344
   Y364      31.61512   0.00758   0.00000   0.00616   0.00604  31.62115
   Z364      41.15824   0.00498   0.00000   0.00059   0.00099  41.15922
   X365      30.67026   0.00942   0.00000   0.00467   0.00486  30.67512
   Y365      37.00084   0.00011   0.00000  -0.00007   0.00040  37.00124
   Z365      53.42256  -0.00126   0.00000   0.00160   0.00165  53.42421
   X366      28.95060  -0.01117   0.00000  -0.00756  -0.00736  28.94324
   Y366      36.81187  -0.00165   0.00000  -0.00182  -0.00134  36.81052
   Z366      53.93278   0.00414   0.00000   0.00353   0.00360  53.93639
   X367      31.10489   0.00159   0.00000   0.00208   0.00227  31.10716
   Y367      38.70159   0.00389   0.00000   0.00438   0.00487  38.70646
   Z367      53.89499  -0.00208   0.00000  -0.00395  -0.00398  53.89101
   X368      54.38632   0.01898   0.00000   0.01015   0.01024  54.39656
   Y368      38.55041  -0.02846   0.00000  -0.02051  -0.02020  38.53021
   Z368      45.18335  -0.01040   0.00000  -0.01171  -0.01200  45.17136
   X369      54.31073  -0.00247   0.00000  -0.00159  -0.00148  54.30925
   Y369      38.17247   0.00168   0.00000   0.00028   0.00066  38.17313
   Z369      46.95969   0.00059   0.00000  -0.00333  -0.00360  46.95610
   X370      53.34697  -0.01541   0.00000  -0.00696  -0.00689  53.34008
   Y370      40.00550   0.02142   0.00000   0.01036   0.01065  40.01615
   Z370      44.99438   0.00637   0.00000   0.01013   0.00980  45.00418
   X371      34.73317   0.01429   0.00000   0.00965   0.00944  34.74260
   Y371      54.23514   0.00559   0.00000   0.00374   0.00324  54.23838
   Z371      29.36634  -0.00572   0.00000  -0.00144  -0.00215  29.36420
   X372      33.92058  -0.00739   0.00000  -0.00405  -0.00424  33.91634
   Y372      53.04461  -0.00789   0.00000  -0.00326  -0.00372  53.04090
   Z372      30.46239   0.01004   0.00000   0.00813   0.00748  30.46987
   X373      33.37256  -0.00562   0.00000  -0.00281  -0.00303  33.36953
   Y373      55.19890   0.00194   0.00000   0.00042  -0.00011  55.19879
   Z373      28.66715  -0.00272   0.00000  -0.00199  -0.00272  28.66443
   X374      24.64203  -0.00679   0.00000  -0.00234  -0.00219  24.63984
   Y374      28.19471   0.00241   0.00000   0.00132   0.00136  28.19607
   Z374      44.03062  -0.01879   0.00000  -0.01122  -0.01074  44.01988
   X375      25.15225   0.00169   0.00000   0.00202   0.00217  25.15443
   Y375      26.62624  -0.00352   0.00000  -0.00487  -0.00486  26.62139
   Z375      43.27473   0.00196   0.00000   0.00238   0.00293  43.27765
   X376      25.30343   0.00393   0.00000  -0.00205  -0.00188  25.30155
   Y376      28.13802  -0.00163   0.00000  -0.00114  -0.00103  28.13700
   Z376      45.71248   0.02084   0.00000   0.01401   0.01449  45.72696
   X377      26.58845  -0.01691   0.00000  -0.01104  -0.01082  26.57762
   Y377      27.34434  -0.00615   0.00000  -0.00299  -0.00273  27.34161
   Z377      49.03839  -0.00501   0.00000  -0.00703  -0.00653  49.03186
   X378      26.83411   0.00461   0.00000   0.00394   0.00417  26.83828
   Y378      28.13802   0.00475   0.00000   0.00312   0.00345  28.14147
   Z378      50.64466   0.00373   0.00000  -0.00144  -0.00098  50.64368
   X379      28.15692   0.01601   0.00000   0.01267   0.01287  28.16979
   Y379      27.57110   0.00089   0.00000  -0.00178  -0.00154  27.56956
   Z379      48.16912  -0.00113   0.00000   0.00297   0.00343  48.17255
   X380      21.44839   0.01559   0.00000   0.01789   0.01779  21.46619
   Y380      43.76606   0.00476   0.00000   0.00702   0.00657  43.77263
   Z380      32.67336  -0.01997   0.00000  -0.00771  -0.00784  32.66553
   X381      21.39170  -0.00681   0.00000  -0.00947  -0.00954  21.38216
   Y381      42.91568  -0.01056   0.00000  -0.00714  -0.00752  42.90816
   Z381      34.26073   0.02103   0.00000   0.01292   0.01283  34.27357
   X382      20.44684  -0.00694   0.00000  -0.00505  -0.00516  20.44168
   Y382      45.24004   0.00782   0.00000   0.00480   0.00435  45.24439
   Z382      32.91903  -0.00020   0.00000  -0.00344  -0.00361  32.91542
   X383      53.15800   0.01184   0.00000   0.00735   0.00725  53.16524
   Y383      49.20847   0.01507   0.00000   0.00976   0.00964  49.21811
   Z383      35.14891   0.00305   0.00000   0.00471   0.00400  35.15291
   X384      54.42411   0.00034   0.00000  -0.00143  -0.00153  54.42259
   Y384      47.92345  -0.00666   0.00000  -0.00606  -0.00618  47.91728
   Z384      34.97883   0.00027   0.00000   0.00146   0.00078  34.97961
   X385      51.58952  -0.01222   0.00000  -0.00566  -0.00577  51.58376
   Y385      48.32030  -0.00967   0.00000  -0.00542  -0.00555  48.31474
   Z385      35.07332  -0.00160   0.00000  -0.00129  -0.00195  35.07137
         Item               Value     Threshold  Converged?
 Maximum Force            0.039479     0.000450     NO 
 RMS     Force            0.011025     0.000300     NO 
 Maximum Displacement     0.029557     0.001800     NO 
 RMS     Displacement     0.008823     0.001200     NO 
 Predicted change in Energy=-7.793969D-02
 GradGradGradGradGradGradGradGradGradGradGradGradGradGradGradGradGradGrad

 Leave Link  103 at Sun May  6 17:47:15 2018, MaxMem= 14763950080 cpu:      3118.3
 (Enter /cm/shared/gaussian/g09.e01/intel64-sandybridge/g09/l9999.exe)
 1\1\GINC-POPLE07\Force\RPBE1PBE\CC-pVDZ\Br1H256O128(1-)\M.PELUSO\06-Ma
 y-2018\0\\#p PBE1PBE/cc-pvDZ force Counterpoise=2 noSymm\\forces on ch
 loride comput - NWATER: 128\\-1,1\Br,20.,20.,20.\O,18.48,22.1,21.9\H,1
 7.73,21.99,21.32\H,19.19,21.63,21.47\O,21.57,17.03,19.49\H,21.16,17.89
 ,19.58\H,21.94,16.86,20.36\O,16.69,21.02,20.32\H,17.56,20.66,20.12\H,1
 6.2,20.93,19.5\O,20.47,19.26,23.31\H,21.12,18.6,23.54\H,20.69,19.52,22
 .42\O,23.35,20.55,18.65\H,22.47,20.29,18.9\H,23.74,19.77,18.27\O,18.8,
 21.87,16.73\H,19.22,21.63,17.56\H,18.46,21.04,16.39\O,17.86,17.19,21.8
 7\H,18.27,17.9,21.38\H,16.98,17.12,21.5\O,22.44,22.42,16.8\H,22.97,22.
 13,16.06\H,22.66,21.81,17.5\O,17.1,17.25,16.52\H,17.82,17.54,17.07\H,1
 6.58,18.04,16.37\O,18.44,20.07,24.95\H,18.86,20.17,25.8\H,19.16,19.91,
 24.34\O,20.85,19.84,15.56\H,20.47,20.71,15.62\H,21.74,19.99,15.23\O,24
 .65,22.52,19.98\H,24.02,21.98,19.51\H,24.52,23.4,19.63\O,22.81,16.33,1
 7.23\H,23.57,16.92,17.18\H,22.42,16.51,18.08\O,16.85,22.26,24.08\H,16.
 86,21.53,24.7\H,17.36,21.96,23.33\O,20.17,14.52,19.51\H,20.44,15.36,19
 .14\H,19.24,14.45,19.29\O,22.52,23.41,22.61\H,21.67,23.28,23.04\H,22.9
 6,22.56,22.68\O,19.53,16.27,23.83\H,19.01,16.48,23.05\H,20.41,16.6,23.
 61\O,16.25,22.7,17.36\H,16.01,23.59,17.09\H,17.19,22.64,17.17\O,21.25,
 24.62,17.93\H,21.65,23.85,17.53\H,21.79,24.82,18.69\O,20.39,22.36,24.8
 9\H,19.47,22.12,24.98\H,20.82,21.57,24.58\O,22.23,17.3,23.89\H,22.58,1
 6.6,24.45\H,22.61,17.12,23.03\O,20.8,17.06,15.44\H,21.58,16.96,15.99\H
 ,20.56,17.98,15.52\O,18.74,24.52,23.54\H,18.24,24.52,24.36\H,18.57,23.
 66,23.16\O,18.72,25.28,18.52\H,19.52,24.77,18.41\H,18.48,25.17,19.44\O
 ,23.44,16.67,21.61\H,24.16,17.01,21.07\H,23.8,15.88,22.02\O,15.52,17.7
 1,20.6\H,15.09,17.61,19.75\H,14.87,18.12,21.16\O,22.88,24.83,20.19\H,2
 2.84,24.24,20.94\H,23.35,25.6,20.51\O,24.77,21.17,22.53\H,25.47,21.52,
 23.07\H,24.72,21.76,21.78\O,23.85,19.65,24.45\H,23.33,18.95,24.06\H,24
 .44,19.92,23.76\O,14.25,21.25,21.99\H,15.14,21.53,21.81\H,13.86,21.11,
 21.13\O,16.84,20.35,15.62\H,15.89,20.49,15.64\H,17.04,20.16,14.71\O,19
 .35,22.42,14.14\H,18.96,22.23,15.\H,20.01,23.08,14.32\O,24.81,18.12,17
 .44\H,24.76,18.63,16.63\H,25.64,18.38,17.84\O,14.27,21.56,18.74\H,14.9
 ,21.98,18.15\H,13.72,22.27,19.06\O,17.68,25.93,21.3\H,18.27,25.47,21.9
 \H,17.18,26.52,21.86\O,15.67,24.34,22.68\H,16.07,24.42,21.82\H,16.12,2
 3.6,23.09\O,25.74,17.5,20.47\H,26.36,17.92,19.87\H,26.1,16.62,20.61\O,
 16.41,18.1,25.96\H,16.4,18.59,26.79\H,16.85,18.68,25.34\O,19.05,17.07,
 26.45\H,19.44,17.02,25.58\H,18.15,17.34,26.3\O,21.64,14.08,16.64\H,21.
 03,14.13,15.91\H,22.12,14.91,16.62\O,16.84,14.76,15.82\H,17.02,15.63,1
 6.16\H,16.28,14.9,15.06\O,16.13,15.25,24.07\H,16.67,15.81,24.64\H,16.1
 8,15.67,23.21\O,14.44,16.9,18.11\H,14.34,17.38,17.29\H,14.57,15.99,17.
 85\O,23.65,21.21,14.55\H,23.29,20.88,13.73\H,24.37,21.78,14.28\O,21.91
 ,24.03,14.28\H,22.48,23.65,14.94\H,22.38,23.9,13.45\O,18.6,17.49,13.01
 \H,19.15,17.88,12.33\H,19.14,17.5,13.8\O,21.06,26.07,24.03\H,21.21,26.
 67,23.3\H,20.26,25.6,23.79\O,12.79,19.53,19.68\H,13.11,18.7,19.33\H,13
 .28,20.19,19.19\O,17.26,13.89,18.83\H,16.33,14.07,18.91\H,17.43,13.88,
 17.89\O,21.95,24.35,25.76\H,21.54,24.91,25.1\H,21.52,23.5,25.64\O,21.0
 1,12.55,21.51\H,20.65,13.28,21.01\H,21.15,11.86,20.86\O,19.71,14.53,14
 .64\H,19.2,15.14,15.18\H,19.1,13.83,14.42\O,23.18,13.05,18.6\H,22.86,1
 2.23,18.21\H,22.49,13.68,18.46\O,21.12,27.46,18.08\H,20.65,26.64,17.95
 \H,20.5,28.02,18.56\O,27.46,22.53,19.76\H,27.63,21.67,20.15\H,26.51,22
 .63,19.79\O,17.1,26.92,17.35\H,16.65,27.33,18.09\H,17.71,26.31,17.76\O
 ,22.31,15.75,13.75\H,22.4,14.85,14.08\H,21.61,16.13,14.28\O,19.15,14.0
 6,25.38\H,19.08,13.43,24.66\H,19.34,14.89,24.95\O,22.77,18.76,13.41\H,
 23.47,18.79,12.76\H,22.77,17.85,13.72\O,16.63,12.81,21.05\H,17.42,12.3
 ,21.21\H,16.91,13.47,20.41\O,24.51,20.85,26.71\H,23.72,20.93,27.24\H,2
 4.22,20.39,25.91\O,13.23,20.65,24.36\H,13.55,20.79,23.47\H,13.64,21.33
 ,24.88\O,26.54,22.18,16.68\H,26.15,22.96,17.09\H,26.95,21.71,17.41\O,1
 9.27,20.96,11.83\H,19.32,21.36,12.7\H,18.48,21.34,11.45\O,13.84,18.86,
 15.92\H,13.42,19.72,15.94\H,13.19,18.28,15.51\O,19.32,20.62,27.48\H,18
 .93,21.49,27.55\H,19.23,20.25,28.36\O,25.84,24.89,17.42\H,26.21,25.32,
 16.65\H,24.95,25.22,17.47\O,25.42,17.77,26.07\H,24.68,17.16,26.17\H,25
 .1,18.44,25.46\O,14.62,22.78,14.4\H,14.43,23.48,13.78\H,14.95,23.23,15
 .18\O,25.6,18.73,14.82\H,25.01,19.17,14.2\H,26.37,19.3,14.86\O,15.39,2
 4.98,16.29\H,14.47,25.08,16.56\H,15.78,25.84,16.47\O,20.04,25.81,14.38
 \H,20.2,26.26,15.21\H,20.76,25.19,14.3\O,23.71,26.83,17.2\H,22.76,26.7
 1,17.25\H,23.85,27.44,16.48\O,12.99,17.52,22.54\H,12.9,16.58,22.64\H,1
 3.35,17.81,23.38\O,16.46,19.3,12.69\H,16.65,19.52,11.78\H,17.09,18.62,
 12.91\O,27.42,18.34,18.24\H,28.12,17.72,18.46\H,27.87,19.03,17.75\O,22
 .12,21.02,28.09\H,21.28,20.69,27.76\H,21.96,21.95,28.26\O,23.49,15.44,
 25.45\H,23.08,14.58,25.53\H,24.31,15.27,24.99\O,28.2,20.26,20.9\H,27.7
 7,19.73,21.57\H,29.11,20.3,21.17\O,17.31,24.99,13.96\H,16.87,25.5,14.6
 4\H,18.24,25.09,14.15\O,13.52,18.19,25.16\H,14.43,17.97,25.33\H,13.54,
 19.11,24.89\O,24.92,25.4,24.44\H,25.13,24.6,24.93\H,23.97,25.39,24.37\
 O,24.58,12.92,20.95\H,25.04,12.1,20.74\H,23.85,12.95,20.33\O,21.52,28.
 06,21.84\H,21.03,27.92,21.03\H,22.38,27.67,21.67\O,15.26,25.16,25.09\H
 ,14.65,24.45,25.28\H,15.37,25.14,24.14\O,17.7,24.75,26.14\H,18.14,25.5
 8,25.96\H,16.77,24.96,26.18\O,18.87,11.98,23.51\H,18.61,11.29,22.89\H,
 19.56,12.46,23.05\O,23.78,27.52,20.25\H,23.74,27.24,19.34\H,24.01,28.4
 5,20.21\O,26.43,14.84,21.42\H,27.09,14.27,21.81\H,25.7,14.26,21.22\O,2
 6.18,14.51,16.91\H,26.23,15.23,17.54\H,25.52,14.79,16.27\O,12.71,21.3,
 15.72\H,12.24,21.85,16.35\H,13.39,21.87,15.37\O,20.73,18.66,11.5\H,20.
 33,19.51,11.68\H,21.57,18.7,11.95\O,20.42,17.29,28.86\H,20.41,17.51,27
 .93\H,20.16,18.1,29.3\O,25.83,15.59,23.99\H,26.41,15.59,23.23\H,26.41,
 15.82,24.72\O,14.39,13.77,19.05\H,13.54,13.41,18.81\H,14.35,13.86,20.\
 O,19.44,28.6,19.92\H,18.56,28.23,20.01\H,19.3,29.55,19.97\O,12.3,24.37
 ,20.98\H,12.82,24.15,21.75\H,11.63,23.68,20.94\O,25.4,16.03,14.61\H,24
 .74,15.88,13.94\H,25.68,16.94,14.48\O,14.1,20.58,13.12\H,14.26,21.34,1
 3.67\H,14.94,20.13,13.07\O,27.21,22.54,24.06\H,27.38,23.23,23.43\H,26.
 6,22.93,24.68\O,18.03,23.03,28.23\H,18.01,23.69,27.53\H,17.74,23.51,29
 .01\O,26.,22.48,13.7\H,26.54,21.97,13.1\H,26.33,22.27,14.57\O,16.22,12
 .52,24.06\H,17.15,12.47,23.86\H,15.99,13.44,23.95\O,13.66,26.59,22.42\
 H,14.3,25.97,22.79\H,14.19,27.2,21.91\O,14.31,17.15,13.1\H,13.57,17.24
 ,13.7\H,14.84,17.93,13.26\O,10.91,21.66,19.46\H,11.31,20.79,19.47\H,10
 .6,21.79,20.35\O,28.42,15.81,19.82\H,27.7,15.78,20.46\H,29.01,16.48,20
 .16\O,17.02,23.19,11.65\H,17.15,23.97,12.19\H,16.64,22.55,12.25\O,17.1
 7,14.46,27.28\H,17.08,13.51,27.35\H,17.89,14.59,26.66\O,22.49,24.43,28
 .29\H,22.24,24.34,27.37\H,23.45,24.39,28.28\O,16.42,27.79,22.7\H,15.86
 ,28.51,22.99\H,16.94,27.57,23.47\O,22.6,11.44,23.61\H,22.,11.89,23.01\
 H,22.52,11.93,24.43\O,27.81,24.26,22.1\H,27.98,23.64,21.39\H,28.12,25.
 1,21.76\O,15.53,12.25,17.14\H,14.75,12.74,17.41\H,16.01,12.84,16.57\O,
 10.41,19.08,21.65\H,11.21,19.06,21.12\H,10.27,20.01,21.83\O,18.63,11.6
 ,15.47\H,18.49,12.01,16.32\H,19.42,11.06,15.59\O,16.07,28.51,19.83\H,1
 6.46,28.2,20.65\H,15.27,27.99,19.74\O,25.67,23.24,26.15\H,25.78,22.34,
 26.44\H,25.48,23.74,26.94\O,24.39,12.7,15.55\H,23.95,12.79,16.39\H,23.
 69,12.79,14.9\O,22.18,27.44,26.08\H,21.66,26.98,25.42\H,21.79,27.19,26
 .91\O,10.77,16.3,21.16\H,11.6,16.77,21.28\H,10.18,16.73,21.78\O,16.23,
 19.58,28.27\H,15.32,19.48,28.54\H,16.46,20.48,28.52\O,28.78,20.4,23.91
 \H,28.74,20.2,24.85\H,28.23,21.17,23.81\O,18.38,28.7,15.54\H,17.95,28.
 07,16.12\H,17.66,29.21,15.17\O,13.04,14.92,23.3\H,13.31,14.09,22.9\H,1
 3.39,14.89,24.19\O,14.07,14.47,25.95\H,14.2,14.89,26.8\H,14.9,14.59,25
 .49\O,11.35,23.16,17.29\H,11.32,22.71,18.13\H,10.82,23.94,17.42\O,28.1
 3,26.04,18.6\H,28.8,25.36,18.51\H,27.3,25.57,18.56\\Version=ES64L-G09R
 evE.01\HF=-9773.4393829\RMSD=1.735e-09\RMSF=1.103e-02\Dipole=3.9145566
 ,10.7324431,-4.3967109\Quadrupole=115.8016381,560.2800864,-676.0817245
 ,-1005.5359147,-1544.3188907,-1173.4178361\PG=C01 [X(Br1H256O128)]\\@


 WORK FAITHFULLY FOR EIGHT HOURS A DAY AND DON'T WORRY.
 IN TIME YOU MAY BECOME BOSS AND WORK TWELVE HOURS A DAY
 AND HAVE ALL THE WORRY.
 Job cpu time:       6 days 10 hours 52 minutes 52.6 seconds.
 File lengths (MBytes):  RWF=   7285 Int=      0 D2E=      0 Chk=   2411 Scr=      1
 Normal termination of Gaussian 09 at Sun May  6 17:47:58 2018.
