 Entering Gaussian System, Link 0=/cm/shared/gaussian/g09.e01/intel64-sandybridge/g09/g09
 Initial command:
 /cm/shared/gaussian/g09.e01/intel64-sandybridge/g09/l1.exe "/local/scratch/m.peluso/128_wat/Gau-42454.inp" -scrdir="/local/scratch/m.peluso/128_wat/"
 Entering Link 1 = /cm/shared/gaussian/g09.e01/intel64-sandybridge/g09/l1.exe PID=     42455.
  
 Copyright (c) 1988,1990,1992,1993,1995,1998,2003,2009,2015,
            Gaussian, Inc.  All Rights Reserved.
  
 This is part of the Gaussian(R) 09 program.  It is based on
 the Gaussian(R) 03 system (copyright 2003, Gaussian, Inc.),
 the Gaussian(R) 98 system (copyright 1998, Gaussian, Inc.),
 the Gaussian(R) 94 system (copyright 1995, Gaussian, Inc.),
 the Gaussian 92(TM) system (copyright 1992, Gaussian, Inc.),
 the Gaussian 90(TM) system (copyright 1990, Gaussian, Inc.),
 the Gaussian 88(TM) system (copyright 1988, Gaussian, Inc.),
 the Gaussian 86(TM) system (copyright 1986, Carnegie Mellon
 University), and the Gaussian 82(TM) system (copyright 1983,
 Carnegie Mellon University). Gaussian is a federally registered
 trademark of Gaussian, Inc.
  
 This software contains proprietary and confidential information,
 including trade secrets, belonging to Gaussian, Inc.
  
 This software is provided under written license and may be
 used, copied, transmitted, or stored only in accord with that
 written license.
  
 The following legend is applicable only to US Government
 contracts under FAR:
  
                    RESTRICTED RIGHTS LEGEND
  
 Use, reproduction and disclosure by the US Government is
 subject to restrictions as set forth in subparagraphs (a)
 and (c) of the Commercial Computer Software - Restricted
 Rights clause in FAR 52.227-19.
  
 Gaussian, Inc.
 340 Quinnipiac St., Bldg. 40, Wallingford CT 06492
  
  
 ---------------------------------------------------------------
 Warning -- This program may not be used in any manner that
 competes with the business of Gaussian, Inc. or will provide
 assistance to any competitor of Gaussian, Inc.  The licensee
 of this program is prohibited from giving any competitor of
 Gaussian, Inc. access to this program.  By using this program,
 the user acknowledges that Gaussian, Inc. is engaged in the
 business of creating and licensing software in the field of
 computational chemistry and represents and warrants to the
 licensee that it is not a competitor of Gaussian, Inc. and that
 it will not use this program in any manner prohibited above.
 ---------------------------------------------------------------
  

 Cite this work as:
 Gaussian 09, Revision E.01,
 M. J. Frisch, G. W. Trucks, H. B. Schlegel, G. E. Scuseria, 
 M. A. Robb, J. R. Cheeseman, G. Scalmani, V. Barone, B. Mennucci, 
 G. A. Petersson, H. Nakatsuji, M. Caricato, X. Li, H. P. Hratchian, 
 A. F. Izmaylov, J. Bloino, G. Zheng, J. L. Sonnenberg, M. Hada, 
 M. Ehara, K. Toyota, R. Fukuda, J. Hasegawa, M. Ishida, T. Nakajima, 
 Y. Honda, O. Kitao, H. Nakai, T. Vreven, J. A. Montgomery, Jr., 
 J. E. Peralta, F. Ogliaro, M. Bearpark, J. J. Heyd, E. Brothers, 
 K. N. Kudin, V. N. Staroverov, T. Keith, R. Kobayashi, J. Normand, 
 K. Raghavachari, A. Rendell, J. C. Burant, S. S. Iyengar, J. Tomasi, 
 M. Cossi, N. Rega, J. M. Millam, M. Klene, J. E. Knox, J. B. Cross, 
 V. Bakken, C. Adamo, J. Jaramillo, R. Gomperts, R. E. Stratmann, 
 O. Yazyev, A. J. Austin, R. Cammi, C. Pomelli, J. W. Ochterski, 
 R. L. Martin, K. Morokuma, V. G. Zakrzewski, G. A. Voth, 
 P. Salvador, J. J. Dannenberg, S. Dapprich, A. D. Daniels, 
 O. Farkas, J. B. Foresman, J. V. Ortiz, J. Cioslowski, 
 and D. J. Fox, Gaussian, Inc., Wallingford CT, 2013.
 
 ******************************************
 Gaussian 09:  ES64L-G09RevE.01 30-Nov-2015
                 4-May-2018 
 ******************************************
 %Mem=110GB
 %NProcShared=64
 Will use up to   64 processors via shared memory.
 %chk=snap105.chk
 ----------------------------------------------
 #p PBE1PBE/cc-pvDZ force Counterpoise=2 noSymm
 ----------------------------------------------
 1/10=7,30=1,38=1,62=2/1,3;
 2/12=2,15=1,17=6,18=5,40=1/2;
 1/10=7,30=1,38=1,53=2,62=2,63=101/22;
 3/5=16,11=2,16=1,25=1,30=1,71=1,74=-13/1,2,3;
 4//1;
 5/5=2,38=5/2;
 6/7=2,8=2,9=2,10=2,28=1/1;
 7/7=1,29=1,30=1,33=-1/1,2,3,16;
 1/10=7,30=1,53=2,62=2,63=101/22;
 3/5=7,6=11,11=2,16=1,25=1,30=1,71=1,74=-13,82=7/1,2,3;
 4//1;
 5/5=2,38=5/2;
 6/7=2,8=2,9=2,10=2,28=1/1;
 7/7=1,29=1,30=1,33=-1/1,2,3,16;
 1/10=7,30=1,53=2,62=2,63=101/22(-5);
 7/9=1,29=1,44=-1/16;
 1/10=7,30=1,62=2/3;
 99//99;
 Leave Link    1 at Fri May  4 17:35:19 2018, MaxMem= 14763950080 cpu:         9.0
 (Enter /cm/shared/gaussian/g09.e01/intel64-sandybridge/g09/l101.exe)
 ---------------------------------------
 forces on chloride comput - NWATER: 128
 ---------------------------------------
 Symbolic Z-matrix:
 Charge = -1 Multiplicity = 1 in supermolecule
 Charge = -1 Multiplicity = 1 in fragment      1.
 Charge =  0 Multiplicity = 1 in fragment      2.
 Br(Fragment=1)        20.       20.       20. 
 O(Fragment=2)         22.41     21.14     21.83 
 H(Fragment=2)         22.59     20.4      22.4 
 H(Fragment=2)         21.58     20.92     21.4 
 O(Fragment=2)         22.49     18.55     18.48 
 H(Fragment=2)         21.77     18.92     18.99 
 H(Fragment=2)         23.26     19.07     18.73 
 O(Fragment=2)         17.46     18.75     18.6 
 H(Fragment=2)         18.17     18.67     19.23 
 H(Fragment=2)         17.04     19.58     18.8 
 O(Fragment=2)         18.19     21.83     22.09 
 H(Fragment=2)         18.3      21.11     21.47 
 H(Fragment=2)         18.8      22.5      21.78 
 O(Fragment=2)         21.68     22.61     18.46 
 H(Fragment=2)         21.42     23.53     18.57 
 H(Fragment=2)         20.99     22.12     18.9 
 O(Fragment=2)         18.36     17.49     21.93 
 H(Fragment=2)         18.19     17.94     22.75 
 H(Fragment=2)         18.85     18.12     21.4 
 O(Fragment=2)         19.87     20.88     16.29 
 H(Fragment=2)         20.33     20.25     15.74 
 H(Fragment=2)         20.05     20.59     17.19 
 O(Fragment=2)         21.91     16.65     20.82 
 H(Fragment=2)         21.15     16.24     20.4 
 H(Fragment=2)         22.21     17.3      20.18 
 O(Fragment=2)         23.93     21.01     18.8 
 H(Fragment=2)         23.21     21.58     19.05 
 H(Fragment=2)         23.98     21.09     17.85 
 O(Fragment=2)         18.98     24.09     20.43 
 H(Fragment=2)         18.75     23.64     19.61 
 H(Fragment=2)         19.71     24.67     20.19 
 O(Fragment=2)         16.72     21.74     17.93 
 H(Fragment=2)         17.44     22.35     18.08 
 H(Fragment=2)         16.06     22.24     17.46 
 O(Fragment=2)         21.3      22.44     23.92 
 H(Fragment=2)         21.73     21.69     24.33 
 H(Fragment=2)         21.38     22.27     22.98 
 O(Fragment=2)         22.11     17.65     23.51 
 H(Fragment=2)         22.07     17.55     22.56 
 H(Fragment=2)         21.62     16.9      23.85 
 O(Fragment=2)         22.42     19.26     15.5 
 H(Fragment=2)         22.19     19.84     16.23 
 H(Fragment=2)         22.24     18.38     15.84 
 O(Fragment=2)         18.76     23.56     17.75 
 H(Fragment=2)         19.09     23.19     16.93 
 H(Fragment=2)         18.77     24.51     17.61 
 O(Fragment=2)         18.45     21.32     24.85 
 H(Fragment=2)         18.43     21.47     23.91 
 H(Fragment=2)         19.36     21.47     25.1 
 O(Fragment=2)         19.37     15.42     19.77 
 H(Fragment=2)         18.78     15.7      20.47 
 H(Fragment=2)         18.98     14.62     19.43 
 O(Fragment=2)         16.86     19.85     15.63 
 H(Fragment=2)         17.13     20.       16.53 
 H(Fragment=2)         17.15     20.63     15.16 
 O(Fragment=2)         15.75     17.09     21.16 
 H(Fragment=2)         16.61     17.33     21.51 
 H(Fragment=2)         15.16     17.77     21.49 
 O(Fragment=2)         15.53     21.8      21.31 
 H(Fragment=2)         15.83     22.       20.42 
 H(Fragment=2)         16.23     22.1      21.88 
 O(Fragment=2)         23.41     24.17     22. 
 H(Fragment=2)         23.23     23.23     21.93 
 H(Fragment=2)         22.57     24.56     22.24 
 O(Fragment=2)         15.07     17.47     18.62 
 H(Fragment=2)         15.86     17.88     18.27 
 H(Fragment=2)         15.17     17.51     19.57 
 O(Fragment=2)         22.27     19.95     24.94 
 H(Fragment=2)         22.06     19.14     24.47 
 H(Fragment=2)         22.9      19.68     25.61 
 O(Fragment=2)         17.48     18.58     24.31 
 H(Fragment=2)         16.54     18.41     24.37 
 H(Fragment=2)         17.56     19.53     24.42 
 O(Fragment=2)         25.82     21.48     20.82 
 H(Fragment=2)         25.43     21.57     21.69 
 H(Fragment=2)         25.08     21.3      20.25 
 O(Fragment=2)         19.94     14.81     16.98 
 H(Fragment=2)         20.53     15.42     17.43 
 H(Fragment=2)         19.35     15.38     16.48 
 O(Fragment=2)         20.11     24.83     23.76 
 H(Fragment=2)         19.38     24.91     24.37 
 H(Fragment=2)         20.3      23.89     23.73 
 O(Fragment=2)         21.25     25.43     19.91 
 H(Fragment=2)         21.59     26.04     20.56 
 H(Fragment=2)         22.02     25.03     19.52 
 O(Fragment=2)         16.97     16.57     16.02 
 H(Fragment=2)         17.3      16.57     15.12 
 H(Fragment=2)         16.88     17.5      16.24 
 O(Fragment=2)         17.78     14.68     22.28 
 H(Fragment=2)         16.88     14.52     22.01 
 H(Fragment=2)         17.81     15.61     22.49 
 O(Fragment=2)         18.66     22.38     14.16 
 H(Fragment=2)         18.69     21.67     13.51 
 H(Fragment=2)         19.01     21.99     14.96 
 O(Fragment=2)         23.76     14.82     21.15 
 H(Fragment=2)         23.4      14.19     20.53 
 H(Fragment=2)         23.12     15.54     21.16 
 O(Fragment=2)         14.28     19.43     21.68 
 H(Fragment=2)         13.75     19.57     20.9 
 H(Fragment=2)         14.66     20.29     21.87 
 O(Fragment=2)         19.68     17.62     25.9 
 H(Fragment=2)         19.94     16.8      25.47 
 H(Fragment=2)         19.14     18.07     25.26 
 O(Fragment=2)         23.85     22.17     16.4 
 H(Fragment=2)         23.72     21.97     15.47 
 H(Fragment=2)         23.47     23.04     16.51 
 O(Fragment=2)         25.76     18.71     21.21 
 H(Fragment=2)         26.12     18.46     22.06 
 H(Fragment=2)         25.65     19.66     21.27 
 O(Fragment=2)         16.76     26.1      20.37 
 H(Fragment=2)         17.53     25.54     20.42 
 H(Fragment=2)         16.9      26.77     21.04 
 O(Fragment=2)         22.14     16.31     15.57 
 H(Fragment=2)         21.64     15.86     14.88 
 H(Fragment=2)         22.36     15.62     16.19 
 O(Fragment=2)         25.67     16.7      19.26 
 H(Fragment=2)         25.59     15.78     19.51 
 H(Fragment=2)         25.56     17.18     20.08 
 O(Fragment=2)         25.06     16.29     16.63 
 H(Fragment=2)         24.25     16.81     16.64 
 H(Fragment=2)         25.54     16.59     17.4 
 O(Fragment=2)         23.69     24.97     18.33 
 H(Fragment=2)         24.28     24.24     18.12 
 H(Fragment=2)         24.27     25.73     18.4 
 O(Fragment=2)         26.54     18.93     17.42 
 H(Fragment=2)         27.07     19.59     17.87 
 H(Fragment=2)         26.02     18.52     18.11 
 O(Fragment=2)         17.27     13.88     18.39 
 H(Fragment=2)         16.89     14.65     17.98 
 H(Fragment=2)         17.15     13.18     17.74 
 O(Fragment=2)         21.12     17.48     13.13 
 H(Fragment=2)         21.39     16.57     13.01 
 H(Fragment=2)         21.43     17.71     14. 
 O(Fragment=2)         14.34     19.64     15.08 
 H(Fragment=2)         14.35     19.39     14.15 
 H(Fragment=2)         15.27     19.64     15.33 
 O(Fragment=2)         15.81     23.42     24.5 
 H(Fragment=2)         15.19     23.23     23.8 
 H(Fragment=2)         16.12     22.56     24.78 
 O(Fragment=2)         19.79     25.03     14.94 
 H(Fragment=2)         19.72     25.24     15.88 
 H(Fragment=2)         19.72     25.87     14.5 
 O(Fragment=2)         23.71     21.03     13.55 
 H(Fragment=2)         22.92     21.47     13.22 
 H(Fragment=2)         23.37     20.35     14.13 
 O(Fragment=2)         14.71     18.01     24.09 
 H(Fragment=2)         14.28     18.31     23.29 
 H(Fragment=2)         13.99     17.78     24.68 
 O(Fragment=2)         19.01     27.31     21.81 
 H(Fragment=2)         19.67     27.51     21.15 
 H(Fragment=2)         19.24     26.43     22.12 
 O(Fragment=2)         25.68     24.94     20.54 
 H(Fragment=2)         25.82     25.86     20.75 
 H(Fragment=2)         24.86     24.71     20.97 
 O(Fragment=2)         25.53     21.62     23.74 
 H(Fragment=2)         25.49     22.27     24.43 
 H(Fragment=2)         26.3      21.1      23.94 
 O(Fragment=2)         18.66     26.29     17.51 
 H(Fragment=2)         18.32     27.18     17.45 
 H(Fragment=2)         19.61     26.4      17.53 
 O(Fragment=2)         13.34     19.36     17.5 
 H(Fragment=2)         13.95     19.5      16.77 
 H(Fragment=2)         13.58     18.51     17.85 
 O(Fragment=2)         20.38     14.84     24.63 
 H(Fragment=2)         19.48     14.51     24.59 
 H(Fragment=2)         20.91     14.06     24.81 
 O(Fragment=2)         15.79     25.66     17.3 
 H(Fragment=2)         16.67     25.68     17.68 
 H(Fragment=2)         15.6      24.73     17.18 
 O(Fragment=2)         24.97     15.87     23.72 
 H(Fragment=2)         24.39     15.36     23.16 
 H(Fragment=2)         25.22     16.62     23.19 
 O(Fragment=2)         22.46     24.56     14.95 
 H(Fragment=2)         21.5      24.56     14.91 
 H(Fragment=2)         22.73     24.38     14.05 
 O(Fragment=2)         14.48     23.1      17.01 
 H(Fragment=2)         13.83     22.55     17.45 
 H(Fragment=2)         14.21     23.1      16.09 
 O(Fragment=2)         18.29     16.77     13.66 
 H(Fragment=2)         19.24     16.89     13.74 
 H(Fragment=2)         18.09     17.05     12.77 
 O(Fragment=2)         15.03     14.38     21.5 
 H(Fragment=2)         14.9      15.21     21.04 
 H(Fragment=2)         14.3      14.34     22.12 
 O(Fragment=2)         21.34     26.59     16.97 
 H(Fragment=2)         21.9      26.62     16.19 
 H(Fragment=2)         21.96     26.49     17.7 
 O(Fragment=2)         22.25     26.56     24.2 
 H(Fragment=2)         22.49     26.89     23.34 
 H(Fragment=2)         21.69     25.8      24.02 
 O(Fragment=2)         13.77     15.46     17.39 
 H(Fragment=2)         14.52     16.06     17.32 
 H(Fragment=2)         13.07     16.       17.74 
 O(Fragment=2)         24.32     22.75     26.5 
 H(Fragment=2)         23.76     22.3      25.86 
 H(Fragment=2)         23.77     22.81     27.29 
 O(Fragment=2)         13.62     24.44     20.26 
 H(Fragment=2)         14.27     24.59     20.94 
 H(Fragment=2)         14.07     24.67     19.44 
 O(Fragment=2)         27.66     21.09     18.75 
 H(Fragment=2)         27.38     21.81     18.19 
 H(Fragment=2)         27.28     21.28     19.6 
 O(Fragment=2)         21.2      20.74     27.95 
 H(Fragment=2)         21.68     20.24     27.29 
 H(Fragment=2)         21.07     20.12     28.67 
 O(Fragment=2)         22.9      12.92     19.43 
 H(Fragment=2)         22.14     12.88     18.85 
 H(Fragment=2)         23.65     12.96     18.84 
 O(Fragment=2)         22.18     13.27     16.12 
 H(Fragment=2)         21.29     13.6      16.25 
 H(Fragment=2)         22.06     12.44     15.65 
 O(Fragment=2)         16.22     24.23     13.94 
 H(Fragment=2)         15.71     23.53     13.54 
 H(Fragment=2)         17.04     23.81     14.19 
 O(Fragment=2)         18.07     22.25     27.61 
 H(Fragment=2)         18.13     21.38     27.22 
 H(Fragment=2)         18.36     22.84     26.91 
 O(Fragment=2)         17.96     24.99     25.53 
 H(Fragment=2)         17.87     25.42     26.38 
 H(Fragment=2)         17.14     24.5      25.42 
 O(Fragment=2)         22.28     17.96     27.63 
 H(Fragment=2)         21.49     17.78     27.13 
 H(Fragment=2)         22.11     17.58     28.49 
 O(Fragment=2)         27.67     22.97     22.15 
 H(Fragment=2)         27.       22.56     21.6 
 H(Fragment=2)         27.87     23.79     21.7 
 O(Fragment=2)         22.29     13.11     23.52 
 H(Fragment=2)         22.84     12.71     24.19 
 H(Fragment=2)         22.91     13.54     22.92 
 O(Fragment=2)         21.25     21.76     12.55 
 H(Fragment=2)         20.76     22.44     12.09 
 H(Fragment=2)         21.23     21.01     11.97 
 O(Fragment=2)         24.78     17.47     26.31 
 H(Fragment=2)         24.73     17.04     25.45 
 H(Fragment=2)         23.88     17.51     26.61 
 O(Fragment=2)         18.5      12.99     24.62 
 H(Fragment=2)         18.33     13.33     23.74 
 H(Fragment=2)         17.62     12.84     24.99 
 O(Fragment=2)         16.28     13.89     15.21 
 H(Fragment=2)         16.41     14.09     14.28 
 H(Fragment=2)         16.16     14.75     15.62 
 O(Fragment=2)         27.35     24.12     18.41 
 H(Fragment=2)         26.69     24.19     19.1 
 H(Fragment=2)         26.89     24.37     17.61 
 O(Fragment=2)         27.16     21.07     15.45 
 H(Fragment=2)         27.01     20.39     16.1 
 H(Fragment=2)         26.3      21.23     15.06 
 O(Fragment=2)         26.78     18.07     23.85 
 H(Fragment=2)         27.7      18.26     23.64 
 H(Fragment=2)         26.64     18.48     24.7 
 O(Fragment=2)         25.98     24.8      23.78 
 H(Fragment=2)         26.47     24.43     23.05 
 H(Fragment=2)         25.18     25.15     23.38 
 O(Fragment=2)         22.48     27.49     21.64 
 H(Fragment=2)         23.31     27.56     21.16 
 H(Fragment=2)         22.03     28.32     21.48 
 O(Fragment=2)         20.48     11.92     18.76 
 H(Fragment=2)         20.05     11.81     19.61 
 H(Fragment=2)         19.76     11.97     18.13 
 O(Fragment=2)         16.18     26.41     23.58 
 H(Fragment=2)         16.99     26.45     24.09 
 H(Fragment=2)         15.66     25.74     24.03 
 O(Fragment=2)         24.55     14.18     15.05 
 H(Fragment=2)         24.74     14.82     15.73 
 H(Fragment=2)         23.73     13.78     15.32 
 O(Fragment=2)         28.99     19.03     20.7 
 H(Fragment=2)         28.2      19.09     20.17 
 H(Fragment=2)         29.23     19.93     20.89 
 O(Fragment=2)         16.21     15.93     26.74 
 H(Fragment=2)         16.03     15.14     26.22 
 H(Fragment=2)         17.17     16.02     26.71 
 O(Fragment=2)         15.8      12.08     20.13 
 H(Fragment=2)         16.71     12.37     20.11 
 H(Fragment=2)         15.33     12.78     20.58 
 O(Fragment=2)         19.51     23.73     11.73 
 H(Fragment=2)         19.37     23.88     12.67 
 H(Fragment=2)         19.26     24.56     11.32 
 O(Fragment=2)         17.46     20.2      11.95 
 H(Fragment=2)         18.37     19.93     11.82 
 H(Fragment=2)         17.16     20.46     11.08 
 O(Fragment=2)         13.94     22.3      14.49 
 H(Fragment=2)         13.74     21.36     14.56 
 H(Fragment=2)         14.04     22.45     13.55 
 O(Fragment=2)         11.4      21.25     17.45 
 H(Fragment=2)         11.3      21.15     18.39 
 H(Fragment=2)         12.03     20.57     17.2 
 O(Fragment=2)         27.74     17.46     15.24 
 H(Fragment=2)         28.24     16.85     15.78 
 H(Fragment=2)         27.09     17.84     15.83 
 O(Fragment=2)         18.76     16.61     28.61 
 H(Fragment=2)         19.32     16.96     27.92 
 H(Fragment=2)         18.6      15.7      28.35 
 O(Fragment=2)         26.48     19.59     26.4 
 H(Fragment=2)         27.18     19.03     26.74 
 H(Fragment=2)         25.73     19.       26.33 
 O(Fragment=2)         20.09     19.52     10.92 
 H(Fragment=2)         20.32     18.78     11.48 
 H(Fragment=2)         19.78     19.12     10.11 
 O(Fragment=2)         24.36     26.69     15.1 
 H(Fragment=2)         24.18     27.08     14.25 
 H(Fragment=2)         24.       25.8      15.04 
 O(Fragment=2)         11.46     21.49     21.31 
 H(Fragment=2)         11.32     21.44     22.26 
 H(Fragment=2)         11.8      22.38     21.17 
 O(Fragment=2)         20.65     28.61     19.66 
 H(Fragment=2)         21.4      29.       19.21 
 H(Fragment=2)         19.95     29.25     19.54 
 O(Fragment=2)         11.67     17.4      17.82 
 H(Fragment=2)         11.47     17.18     18.73 
 H(Fragment=2)         11.78     18.35     17.81 
 O(Fragment=2)         26.1      13.88     19.1 
 H(Fragment=2)         26.25     13.45     18.26 
 H(Fragment=2)         26.29     13.2      19.75 
 O(Fragment=2)         26.28     24.26     15.75 
 H(Fragment=2)         26.54     25.15     15.52 
 H(Fragment=2)         27.05     23.72     15.56 
 O(Fragment=2)         25.22     16.16     13.17 
 H(Fragment=2)         24.98     15.86     14.05 
 H(Fragment=2)         25.62     17.02     13.31 
 O(Fragment=2)         14.69     19.11     12.38 
 H(Fragment=2)         15.53     19.58     12.33 
 H(Fragment=2)         14.94     18.19     12.39 
 O(Fragment=2)         27.82     15.2      17.13 
 H(Fragment=2)         28.54     14.65     17.43 
 H(Fragment=2)         27.28     15.34     17.91 
 O(Fragment=2)         23.46     11.16     21.58 
 H(Fragment=2)         23.18     11.73     20.86 
 H(Fragment=2)         22.65     10.87     21.99 
 O(Fragment=2)         18.45     14.36     27.2 
 H(Fragment=2)         17.73     13.89     27.63 
 H(Fragment=2)         18.54     13.93     26.35 
 O(Fragment=2)         14.44     28.04     19.82 
 H(Fragment=2)         15.26     27.56     19.95 
 H(Fragment=2)         13.9      27.46     19.29 
 O(Fragment=2)         18.74     11.17     21.07 
 H(Fragment=2)         19.15     11.27     21.93 
 H(Fragment=2)         17.82     10.99     21.27 
 O(Fragment=2)         21.66     14.54     12.98 
 H(Fragment=2)         21.39     13.97     12.25 
 H(Fragment=2)         22.62     14.5      12.96 
 O(Fragment=2)         12.03     23.45     24.38 
 H(Fragment=2)         11.52     22.81     24.87 
 H(Fragment=2)         12.92     23.34     24.7 
 O(Fragment=2)         14.66     26.43     15.08 
 H(Fragment=2)         15.12     26.57     15.91 
 H(Fragment=2)         14.94     25.56     14.8 
 O(Fragment=2)         25.31     27.23     17.99 
 H(Fragment=2)         25.44     28.16     18.14 
 H(Fragment=2)         24.87     27.19     17.14 
 O(Fragment=2)         22.25     23.14     28.81 
 H(Fragment=2)         21.8      22.31     28.71 
 H(Fragment=2)         22.74     23.05     29.63 
 O(Fragment=2)         20.75     29.19     16.3 
 H(Fragment=2)         21.21     28.55     16.85 
 H(Fragment=2)         19.84     28.88     16.29 
 O(Fragment=2)         12.14     15.24     20.53 
 H(Fragment=2)         12.36     14.32     20.67 
 H(Fragment=2)         11.58     15.47     21.27 
 O(Fragment=2)         20.72     27.75     26.33 
 H(Fragment=2)         21.05     27.25     25.58 
 H(Fragment=2)         20.59     27.1      27.01 
 O(Fragment=2)         17.8      11.77     16.5 
 H(Fragment=2)         17.48     12.23     15.72 
 H(Fragment=2)         18.36     11.08     16.15 
 O(Fragment=2)         10.62     19.14     20.2 
 H(Fragment=2)         10.93     18.61     20.94 
 H(Fragment=2)         10.72     20.05     20.5 
 O(Fragment=2)         13.45     12.86     18.76 
 H(Fragment=2)         13.49     13.69     18.29 
 H(Fragment=2)         14.36     12.68     18.99 
 O(Fragment=2)         21.09     10.38     22.75 
 H(Fragment=2)         21.05     11.31     22.96 
 H(Fragment=2)         20.92     9.94      23.59 
 O(Fragment=2)         13.45     26.23     22.84 
 H(Fragment=2)         13.35     25.81     23.69 
 H(Fragment=2)         14.3      26.68     22.88 
 O(Fragment=2)         15.       22.29     28.34 
 H(Fragment=2)         15.88     22.21     27.98 
 H(Fragment=2)         15.1      22.08     29.27 
 O(Fragment=2)         23.67     24.15     12.48 
 H(Fragment=2)         23.56     23.89     11.56 
 H(Fragment=2)         24.51     23.77     12.74 
 O(Fragment=2)         14.22     17.56     27.82 
 H(Fragment=2)         13.7      16.87     28.24 
 H(Fragment=2)         14.71     17.11     27.14 
 
 NAtoms=    385 NQM=      385 NQMF=       0 NMMI=      0 NMMIF=      0
                NMic=       0 NMicF=      0.
                    Isotopes and Nuclear Properties:
 (Nuclear quadrupole moments (NQMom) in fm**2, nuclear magnetic moments (NMagM)
  in nuclear magnetons)

  Atom         1           2           3           4           5           6           7           8           9          10
 IAtWgt=          79          16           1           1          16           1           1          16           1           1
 AtmWgt=  78.9183361  15.9949146   1.0078250   1.0078250  15.9949146   1.0078250   1.0078250  15.9949146   1.0078250   1.0078250
 NucSpn=           3           0           1           1           0           1           1           0           1           1
 AtZEff=   0.0000000   0.0000000   0.0000000   0.0000000   0.0000000   0.0000000   0.0000000   0.0000000   0.0000000   0.0000000
 NQMom=   31.3000000   0.0000000   0.0000000   0.0000000   0.0000000   0.0000000   0.0000000   0.0000000   0.0000000   0.0000000
 NMagM=    2.1063990   0.0000000   2.7928460   2.7928460   0.0000000   2.7928460   2.7928460   0.0000000   2.7928460   2.7928460
 AtZNuc=  35.0000000   8.0000000   1.0000000   1.0000000   8.0000000   1.0000000   1.0000000   8.0000000   1.0000000   1.0000000

  Atom        11          12          13          14          15          16          17          18          19          20
 IAtWgt=          16           1           1          16           1           1          16           1           1          16
 AtmWgt=  15.9949146   1.0078250   1.0078250  15.9949146   1.0078250   1.0078250  15.9949146   1.0078250   1.0078250  15.9949146
 NucSpn=           0           1           1           0           1           1           0           1           1           0
 AtZEff=   0.0000000   0.0000000   0.0000000   0.0000000   0.0000000   0.0000000   0.0000000   0.0000000   0.0000000   0.0000000
 NQMom=    0.0000000   0.0000000   0.0000000   0.0000000   0.0000000   0.0000000   0.0000000   0.0000000   0.0000000   0.0000000
 NMagM=    0.0000000   2.7928460   2.7928460   0.0000000   2.7928460   2.7928460   0.0000000   2.7928460   2.7928460   0.0000000
 AtZNuc=   8.0000000   1.0000000   1.0000000   8.0000000   1.0000000   1.0000000   8.0000000   1.0000000   1.0000000   8.0000000

  Atom        21          22          23          24          25          26          27          28          29          30
 IAtWgt=           1           1          16           1           1          16           1           1          16           1
 AtmWgt=   1.0078250   1.0078250  15.9949146   1.0078250   1.0078250  15.9949146   1.0078250   1.0078250  15.9949146   1.0078250
 NucSpn=           1           1           0           1           1           0           1           1           0           1
 AtZEff=   0.0000000   0.0000000   0.0000000   0.0000000   0.0000000   0.0000000   0.0000000   0.0000000   0.0000000   0.0000000
 NQMom=    0.0000000   0.0000000   0.0000000   0.0000000   0.0000000   0.0000000   0.0000000   0.0000000   0.0000000   0.0000000
 NMagM=    2.7928460   2.7928460   0.0000000   2.7928460   2.7928460   0.0000000   2.7928460   2.7928460   0.0000000   2.7928460
 AtZNuc=   1.0000000   1.0000000   8.0000000   1.0000000   1.0000000   8.0000000   1.0000000   1.0000000   8.0000000   1.0000000

  Atom        31          32          33          34          35          36          37          38          39          40
 IAtWgt=           1          16           1           1          16           1           1          16           1           1
 AtmWgt=   1.0078250  15.9949146   1.0078250   1.0078250  15.9949146   1.0078250   1.0078250  15.9949146   1.0078250   1.0078250
 NucSpn=           1           0           1           1           0           1           1           0           1           1
 AtZEff=   0.0000000   0.0000000   0.0000000   0.0000000   0.0000000   0.0000000   0.0000000   0.0000000   0.0000000   0.0000000
 NQMom=    0.0000000   0.0000000   0.0000000   0.0000000   0.0000000   0.0000000   0.0000000   0.0000000   0.0000000   0.0000000
 NMagM=    2.7928460   0.0000000   2.7928460   2.7928460   0.0000000   2.7928460   2.7928460   0.0000000   2.7928460   2.7928460
 AtZNuc=   1.0000000   8.0000000   1.0000000   1.0000000   8.0000000   1.0000000   1.0000000   8.0000000   1.0000000   1.0000000

  Atom        41          42          43          44          45          46          47          48          49          50
 IAtWgt=          16           1           1          16           1           1          16           1           1          16
 AtmWgt=  15.9949146   1.0078250   1.0078250  15.9949146   1.0078250   1.0078250  15.9949146   1.0078250   1.0078250  15.9949146
 NucSpn=           0           1           1           0           1           1           0           1           1           0
 AtZEff=   0.0000000   0.0000000   0.0000000   0.0000000   0.0000000   0.0000000   0.0000000   0.0000000   0.0000000   0.0000000
 NQMom=    0.0000000   0.0000000   0.0000000   0.0000000   0.0000000   0.0000000   0.0000000   0.0000000   0.0000000   0.0000000
 NMagM=    0.0000000   2.7928460   2.7928460   0.0000000   2.7928460   2.7928460   0.0000000   2.7928460   2.7928460   0.0000000
 AtZNuc=   8.0000000   1.0000000   1.0000000   8.0000000   1.0000000   1.0000000   8.0000000   1.0000000   1.0000000   8.0000000

  Atom        51          52          53          54          55          56          57          58          59          60
 IAtWgt=           1           1          16           1           1          16           1           1          16           1
 AtmWgt=   1.0078250   1.0078250  15.9949146   1.0078250   1.0078250  15.9949146   1.0078250   1.0078250  15.9949146   1.0078250
 NucSpn=           1           1           0           1           1           0           1           1           0           1
 AtZEff=   0.0000000   0.0000000   0.0000000   0.0000000   0.0000000   0.0000000   0.0000000   0.0000000   0.0000000   0.0000000
 NQMom=    0.0000000   0.0000000   0.0000000   0.0000000   0.0000000   0.0000000   0.0000000   0.0000000   0.0000000   0.0000000
 NMagM=    2.7928460   2.7928460   0.0000000   2.7928460   2.7928460   0.0000000   2.7928460   2.7928460   0.0000000   2.7928460
 AtZNuc=   1.0000000   1.0000000   8.0000000   1.0000000   1.0000000   8.0000000   1.0000000   1.0000000   8.0000000   1.0000000

  Atom        61          62          63          64          65          66          67          68          69          70
 IAtWgt=           1          16           1           1          16           1           1          16           1           1
 AtmWgt=   1.0078250  15.9949146   1.0078250   1.0078250  15.9949146   1.0078250   1.0078250  15.9949146   1.0078250   1.0078250
 NucSpn=           1           0           1           1           0           1           1           0           1           1
 AtZEff=   0.0000000   0.0000000   0.0000000   0.0000000   0.0000000   0.0000000   0.0000000   0.0000000   0.0000000   0.0000000
 NQMom=    0.0000000   0.0000000   0.0000000   0.0000000   0.0000000   0.0000000   0.0000000   0.0000000   0.0000000   0.0000000
 NMagM=    2.7928460   0.0000000   2.7928460   2.7928460   0.0000000   2.7928460   2.7928460   0.0000000   2.7928460   2.7928460
 AtZNuc=   1.0000000   8.0000000   1.0000000   1.0000000   8.0000000   1.0000000   1.0000000   8.0000000   1.0000000   1.0000000

  Atom        71          72          73          74          75          76          77          78          79          80
 IAtWgt=          16           1           1          16           1           1          16           1           1          16
 AtmWgt=  15.9949146   1.0078250   1.0078250  15.9949146   1.0078250   1.0078250  15.9949146   1.0078250   1.0078250  15.9949146
 NucSpn=           0           1           1           0           1           1           0           1           1           0
 AtZEff=   0.0000000   0.0000000   0.0000000   0.0000000   0.0000000   0.0000000   0.0000000   0.0000000   0.0000000   0.0000000
 NQMom=    0.0000000   0.0000000   0.0000000   0.0000000   0.0000000   0.0000000   0.0000000   0.0000000   0.0000000   0.0000000
 NMagM=    0.0000000   2.7928460   2.7928460   0.0000000   2.7928460   2.7928460   0.0000000   2.7928460   2.7928460   0.0000000
 AtZNuc=   8.0000000   1.0000000   1.0000000   8.0000000   1.0000000   1.0000000   8.0000000   1.0000000   1.0000000   8.0000000

  Atom        81          82          83          84          85          86          87          88          89          90
 IAtWgt=           1           1          16           1           1          16           1           1          16           1
 AtmWgt=   1.0078250   1.0078250  15.9949146   1.0078250   1.0078250  15.9949146   1.0078250   1.0078250  15.9949146   1.0078250
 NucSpn=           1           1           0           1           1           0           1           1           0           1
 AtZEff=   0.0000000   0.0000000   0.0000000   0.0000000   0.0000000   0.0000000   0.0000000   0.0000000   0.0000000   0.0000000
 NQMom=    0.0000000   0.0000000   0.0000000   0.0000000   0.0000000   0.0000000   0.0000000   0.0000000   0.0000000   0.0000000
 NMagM=    2.7928460   2.7928460   0.0000000   2.7928460   2.7928460   0.0000000   2.7928460   2.7928460   0.0000000   2.7928460
 AtZNuc=   1.0000000   1.0000000   8.0000000   1.0000000   1.0000000   8.0000000   1.0000000   1.0000000   8.0000000   1.0000000

  Atom        91          92          93          94          95          96          97          98          99         100
 IAtWgt=           1          16           1           1          16           1           1          16           1           1
 AtmWgt=   1.0078250  15.9949146   1.0078250   1.0078250  15.9949146   1.0078250   1.0078250  15.9949146   1.0078250   1.0078250
 NucSpn=           1           0           1           1           0           1           1           0           1           1
 AtZEff=   0.0000000   0.0000000   0.0000000   0.0000000   0.0000000   0.0000000   0.0000000   0.0000000   0.0000000   0.0000000
 NQMom=    0.0000000   0.0000000   0.0000000   0.0000000   0.0000000   0.0000000   0.0000000   0.0000000   0.0000000   0.0000000
 NMagM=    2.7928460   0.0000000   2.7928460   2.7928460   0.0000000   2.7928460   2.7928460   0.0000000   2.7928460   2.7928460
 AtZNuc=   1.0000000   8.0000000   1.0000000   1.0000000   8.0000000   1.0000000   1.0000000   8.0000000   1.0000000   1.0000000

  Atom       101         102         103         104         105         106         107         108         109         110
 IAtWgt=          16           1           1          16           1           1          16           1           1          16
 AtmWgt=  15.9949146   1.0078250   1.0078250  15.9949146   1.0078250   1.0078250  15.9949146   1.0078250   1.0078250  15.9949146
 NucSpn=           0           1           1           0           1           1           0           1           1           0
 AtZEff=   0.0000000   0.0000000   0.0000000   0.0000000   0.0000000   0.0000000   0.0000000   0.0000000   0.0000000   0.0000000
 NQMom=    0.0000000   0.0000000   0.0000000   0.0000000   0.0000000   0.0000000   0.0000000   0.0000000   0.0000000   0.0000000
 NMagM=    0.0000000   2.7928460   2.7928460   0.0000000   2.7928460   2.7928460   0.0000000   2.7928460   2.7928460   0.0000000
 AtZNuc=   8.0000000   1.0000000   1.0000000   8.0000000   1.0000000   1.0000000   8.0000000   1.0000000   1.0000000   8.0000000

  Atom       111         112         113         114         115         116         117         118         119         120
 IAtWgt=           1           1          16           1           1          16           1           1          16           1
 AtmWgt=   1.0078250   1.0078250  15.9949146   1.0078250   1.0078250  15.9949146   1.0078250   1.0078250  15.9949146   1.0078250
 NucSpn=           1           1           0           1           1           0           1           1           0           1
 AtZEff=   0.0000000   0.0000000   0.0000000   0.0000000   0.0000000   0.0000000   0.0000000   0.0000000   0.0000000   0.0000000
 NQMom=    0.0000000   0.0000000   0.0000000   0.0000000   0.0000000   0.0000000   0.0000000   0.0000000   0.0000000   0.0000000
 NMagM=    2.7928460   2.7928460   0.0000000   2.7928460   2.7928460   0.0000000   2.7928460   2.7928460   0.0000000   2.7928460
 AtZNuc=   1.0000000   1.0000000   8.0000000   1.0000000   1.0000000   8.0000000   1.0000000   1.0000000   8.0000000   1.0000000

  Atom       121         122         123         124         125         126         127         128         129         130
 IAtWgt=           1          16           1           1          16           1           1          16           1           1
 AtmWgt=   1.0078250  15.9949146   1.0078250   1.0078250  15.9949146   1.0078250   1.0078250  15.9949146   1.0078250   1.0078250
 NucSpn=           1           0           1           1           0           1           1           0           1           1
 AtZEff=   0.0000000   0.0000000   0.0000000   0.0000000   0.0000000   0.0000000   0.0000000   0.0000000   0.0000000   0.0000000
 NQMom=    0.0000000   0.0000000   0.0000000   0.0000000   0.0000000   0.0000000   0.0000000   0.0000000   0.0000000   0.0000000
 NMagM=    2.7928460   0.0000000   2.7928460   2.7928460   0.0000000   2.7928460   2.7928460   0.0000000   2.7928460   2.7928460
 AtZNuc=   1.0000000   8.0000000   1.0000000   1.0000000   8.0000000   1.0000000   1.0000000   8.0000000   1.0000000   1.0000000

  Atom       131         132         133         134         135         136         137         138         139         140
 IAtWgt=          16           1           1          16           1           1          16           1           1          16
 AtmWgt=  15.9949146   1.0078250   1.0078250  15.9949146   1.0078250   1.0078250  15.9949146   1.0078250   1.0078250  15.9949146
 NucSpn=           0           1           1           0           1           1           0           1           1           0
 AtZEff=   0.0000000   0.0000000   0.0000000   0.0000000   0.0000000   0.0000000   0.0000000   0.0000000   0.0000000   0.0000000
 NQMom=    0.0000000   0.0000000   0.0000000   0.0000000   0.0000000   0.0000000   0.0000000   0.0000000   0.0000000   0.0000000
 NMagM=    0.0000000   2.7928460   2.7928460   0.0000000   2.7928460   2.7928460   0.0000000   2.7928460   2.7928460   0.0000000
 AtZNuc=   8.0000000   1.0000000   1.0000000   8.0000000   1.0000000   1.0000000   8.0000000   1.0000000   1.0000000   8.0000000

  Atom       141         142         143         144         145         146         147         148         149         150
 IAtWgt=           1           1          16           1           1          16           1           1          16           1
 AtmWgt=   1.0078250   1.0078250  15.9949146   1.0078250   1.0078250  15.9949146   1.0078250   1.0078250  15.9949146   1.0078250
 NucSpn=           1           1           0           1           1           0           1           1           0           1
 AtZEff=   0.0000000   0.0000000   0.0000000   0.0000000   0.0000000   0.0000000   0.0000000   0.0000000   0.0000000   0.0000000
 NQMom=    0.0000000   0.0000000   0.0000000   0.0000000   0.0000000   0.0000000   0.0000000   0.0000000   0.0000000   0.0000000
 NMagM=    2.7928460   2.7928460   0.0000000   2.7928460   2.7928460   0.0000000   2.7928460   2.7928460   0.0000000   2.7928460
 AtZNuc=   1.0000000   1.0000000   8.0000000   1.0000000   1.0000000   8.0000000   1.0000000   1.0000000   8.0000000   1.0000000

  Atom       151         152         153         154         155         156         157         158         159         160
 IAtWgt=           1          16           1           1          16           1           1          16           1           1
 AtmWgt=   1.0078250  15.9949146   1.0078250   1.0078250  15.9949146   1.0078250   1.0078250  15.9949146   1.0078250   1.0078250
 NucSpn=           1           0           1           1           0           1           1           0           1           1
 AtZEff=   0.0000000   0.0000000   0.0000000   0.0000000   0.0000000   0.0000000   0.0000000   0.0000000   0.0000000   0.0000000
 NQMom=    0.0000000   0.0000000   0.0000000   0.0000000   0.0000000   0.0000000   0.0000000   0.0000000   0.0000000   0.0000000
 NMagM=    2.7928460   0.0000000   2.7928460   2.7928460   0.0000000   2.7928460   2.7928460   0.0000000   2.7928460   2.7928460
 AtZNuc=   1.0000000   8.0000000   1.0000000   1.0000000   8.0000000   1.0000000   1.0000000   8.0000000   1.0000000   1.0000000

  Atom       161         162         163         164         165         166         167         168         169         170
 IAtWgt=          16           1           1          16           1           1          16           1           1          16
 AtmWgt=  15.9949146   1.0078250   1.0078250  15.9949146   1.0078250   1.0078250  15.9949146   1.0078250   1.0078250  15.9949146
 NucSpn=           0           1           1           0           1           1           0           1           1           0
 AtZEff=   0.0000000   0.0000000   0.0000000   0.0000000   0.0000000   0.0000000   0.0000000   0.0000000   0.0000000   0.0000000
 NQMom=    0.0000000   0.0000000   0.0000000   0.0000000   0.0000000   0.0000000   0.0000000   0.0000000   0.0000000   0.0000000
 NMagM=    0.0000000   2.7928460   2.7928460   0.0000000   2.7928460   2.7928460   0.0000000   2.7928460   2.7928460   0.0000000
 AtZNuc=   8.0000000   1.0000000   1.0000000   8.0000000   1.0000000   1.0000000   8.0000000   1.0000000   1.0000000   8.0000000

  Atom       171         172         173         174         175         176         177         178         179         180
 IAtWgt=           1           1          16           1           1          16           1           1          16           1
 AtmWgt=   1.0078250   1.0078250  15.9949146   1.0078250   1.0078250  15.9949146   1.0078250   1.0078250  15.9949146   1.0078250
 NucSpn=           1           1           0           1           1           0           1           1           0           1
 AtZEff=   0.0000000   0.0000000   0.0000000   0.0000000   0.0000000   0.0000000   0.0000000   0.0000000   0.0000000   0.0000000
 NQMom=    0.0000000   0.0000000   0.0000000   0.0000000   0.0000000   0.0000000   0.0000000   0.0000000   0.0000000   0.0000000
 NMagM=    2.7928460   2.7928460   0.0000000   2.7928460   2.7928460   0.0000000   2.7928460   2.7928460   0.0000000   2.7928460
 AtZNuc=   1.0000000   1.0000000   8.0000000   1.0000000   1.0000000   8.0000000   1.0000000   1.0000000   8.0000000   1.0000000

  Atom       181         182         183         184         185         186         187         188         189         190
 IAtWgt=           1          16           1           1          16           1           1          16           1           1
 AtmWgt=   1.0078250  15.9949146   1.0078250   1.0078250  15.9949146   1.0078250   1.0078250  15.9949146   1.0078250   1.0078250
 NucSpn=           1           0           1           1           0           1           1           0           1           1
 AtZEff=   0.0000000   0.0000000   0.0000000   0.0000000   0.0000000   0.0000000   0.0000000   0.0000000   0.0000000   0.0000000
 NQMom=    0.0000000   0.0000000   0.0000000   0.0000000   0.0000000   0.0000000   0.0000000   0.0000000   0.0000000   0.0000000
 NMagM=    2.7928460   0.0000000   2.7928460   2.7928460   0.0000000   2.7928460   2.7928460   0.0000000   2.7928460   2.7928460
 AtZNuc=   1.0000000   8.0000000   1.0000000   1.0000000   8.0000000   1.0000000   1.0000000   8.0000000   1.0000000   1.0000000

  Atom       191         192         193         194         195         196         197         198         199         200
 IAtWgt=          16           1           1          16           1           1          16           1           1          16
 AtmWgt=  15.9949146   1.0078250   1.0078250  15.9949146   1.0078250   1.0078250  15.9949146   1.0078250   1.0078250  15.9949146
 NucSpn=           0           1           1           0           1           1           0           1           1           0
 AtZEff=   0.0000000   0.0000000   0.0000000   0.0000000   0.0000000   0.0000000   0.0000000   0.0000000   0.0000000   0.0000000
 NQMom=    0.0000000   0.0000000   0.0000000   0.0000000   0.0000000   0.0000000   0.0000000   0.0000000   0.0000000   0.0000000
 NMagM=    0.0000000   2.7928460   2.7928460   0.0000000   2.7928460   2.7928460   0.0000000   2.7928460   2.7928460   0.0000000
 AtZNuc=   8.0000000   1.0000000   1.0000000   8.0000000   1.0000000   1.0000000   8.0000000   1.0000000   1.0000000   8.0000000

  Atom       201         202         203         204         205         206         207         208         209         210
 IAtWgt=           1           1          16           1           1          16           1           1          16           1
 AtmWgt=   1.0078250   1.0078250  15.9949146   1.0078250   1.0078250  15.9949146   1.0078250   1.0078250  15.9949146   1.0078250
 NucSpn=           1           1           0           1           1           0           1           1           0           1
 AtZEff=   0.0000000   0.0000000   0.0000000   0.0000000   0.0000000   0.0000000   0.0000000   0.0000000   0.0000000   0.0000000
 NQMom=    0.0000000   0.0000000   0.0000000   0.0000000   0.0000000   0.0000000   0.0000000   0.0000000   0.0000000   0.0000000
 NMagM=    2.7928460   2.7928460   0.0000000   2.7928460   2.7928460   0.0000000   2.7928460   2.7928460   0.0000000   2.7928460
 AtZNuc=   1.0000000   1.0000000   8.0000000   1.0000000   1.0000000   8.0000000   1.0000000   1.0000000   8.0000000   1.0000000

  Atom       211         212         213         214         215         216         217         218         219         220
 IAtWgt=           1          16           1           1          16           1           1          16           1           1
 AtmWgt=   1.0078250  15.9949146   1.0078250   1.0078250  15.9949146   1.0078250   1.0078250  15.9949146   1.0078250   1.0078250
 NucSpn=           1           0           1           1           0           1           1           0           1           1
 AtZEff=   0.0000000   0.0000000   0.0000000   0.0000000   0.0000000   0.0000000   0.0000000   0.0000000   0.0000000   0.0000000
 NQMom=    0.0000000   0.0000000   0.0000000   0.0000000   0.0000000   0.0000000   0.0000000   0.0000000   0.0000000   0.0000000
 NMagM=    2.7928460   0.0000000   2.7928460   2.7928460   0.0000000   2.7928460   2.7928460   0.0000000   2.7928460   2.7928460
 AtZNuc=   1.0000000   8.0000000   1.0000000   1.0000000   8.0000000   1.0000000   1.0000000   8.0000000   1.0000000   1.0000000

  Atom       221         222         223         224         225         226         227         228         229         230
 IAtWgt=          16           1           1          16           1           1          16           1           1          16
 AtmWgt=  15.9949146   1.0078250   1.0078250  15.9949146   1.0078250   1.0078250  15.9949146   1.0078250   1.0078250  15.9949146
 NucSpn=           0           1           1           0           1           1           0           1           1           0
 AtZEff=   0.0000000   0.0000000   0.0000000   0.0000000   0.0000000   0.0000000   0.0000000   0.0000000   0.0000000   0.0000000
 NQMom=    0.0000000   0.0000000   0.0000000   0.0000000   0.0000000   0.0000000   0.0000000   0.0000000   0.0000000   0.0000000
 NMagM=    0.0000000   2.7928460   2.7928460   0.0000000   2.7928460   2.7928460   0.0000000   2.7928460   2.7928460   0.0000000
 AtZNuc=   8.0000000   1.0000000   1.0000000   8.0000000   1.0000000   1.0000000   8.0000000   1.0000000   1.0000000   8.0000000

  Atom       231         232         233         234         235         236         237         238         239         240
 IAtWgt=           1           1          16           1           1          16           1           1          16           1
 AtmWgt=   1.0078250   1.0078250  15.9949146   1.0078250   1.0078250  15.9949146   1.0078250   1.0078250  15.9949146   1.0078250
 NucSpn=           1           1           0           1           1           0           1           1           0           1
 AtZEff=   0.0000000   0.0000000   0.0000000   0.0000000   0.0000000   0.0000000   0.0000000   0.0000000   0.0000000   0.0000000
 NQMom=    0.0000000   0.0000000   0.0000000   0.0000000   0.0000000   0.0000000   0.0000000   0.0000000   0.0000000   0.0000000
 NMagM=    2.7928460   2.7928460   0.0000000   2.7928460   2.7928460   0.0000000   2.7928460   2.7928460   0.0000000   2.7928460
 AtZNuc=   1.0000000   1.0000000   8.0000000   1.0000000   1.0000000   8.0000000   1.0000000   1.0000000   8.0000000   1.0000000

  Atom       241         242         243         244         245         246         247         248         249         250
 IAtWgt=           1          16           1           1          16           1           1          16           1           1
 AtmWgt=   1.0078250  15.9949146   1.0078250   1.0078250  15.9949146   1.0078250   1.0078250  15.9949146   1.0078250   1.0078250
 NucSpn=           1           0           1           1           0           1           1           0           1           1
 AtZEff=   0.0000000   0.0000000   0.0000000   0.0000000   0.0000000   0.0000000   0.0000000   0.0000000   0.0000000   0.0000000
 NQMom=    0.0000000   0.0000000   0.0000000   0.0000000   0.0000000   0.0000000   0.0000000   0.0000000   0.0000000   0.0000000
 NMagM=    2.7928460   0.0000000   2.7928460   2.7928460   0.0000000   2.7928460   2.7928460   0.0000000   2.7928460   2.7928460
 AtZNuc=   1.0000000   8.0000000   1.0000000   1.0000000   8.0000000   1.0000000   1.0000000   8.0000000   1.0000000   1.0000000

  Atom       251         252         253         254         255         256         257         258         259         260
 IAtWgt=          16           1           1          16           1           1          16           1           1          16
 AtmWgt=  15.9949146   1.0078250   1.0078250  15.9949146   1.0078250   1.0078250  15.9949146   1.0078250   1.0078250  15.9949146
 NucSpn=           0           1           1           0           1           1           0           1           1           0
 AtZEff=   0.0000000   0.0000000   0.0000000   0.0000000   0.0000000   0.0000000   0.0000000   0.0000000   0.0000000   0.0000000
 NQMom=    0.0000000   0.0000000   0.0000000   0.0000000   0.0000000   0.0000000   0.0000000   0.0000000   0.0000000   0.0000000
 NMagM=    0.0000000   2.7928460   2.7928460   0.0000000   2.7928460   2.7928460   0.0000000   2.7928460   2.7928460   0.0000000
 AtZNuc=   8.0000000   1.0000000   1.0000000   8.0000000   1.0000000   1.0000000   8.0000000   1.0000000   1.0000000   8.0000000

  Atom       261         262         263         264         265         266         267         268         269         270
 IAtWgt=           1           1          16           1           1          16           1           1          16           1
 AtmWgt=   1.0078250   1.0078250  15.9949146   1.0078250   1.0078250  15.9949146   1.0078250   1.0078250  15.9949146   1.0078250
 NucSpn=           1           1           0           1           1           0           1           1           0           1
 AtZEff=   0.0000000   0.0000000   0.0000000   0.0000000   0.0000000   0.0000000   0.0000000   0.0000000   0.0000000   0.0000000
 NQMom=    0.0000000   0.0000000   0.0000000   0.0000000   0.0000000   0.0000000   0.0000000   0.0000000   0.0000000   0.0000000
 NMagM=    2.7928460   2.7928460   0.0000000   2.7928460   2.7928460   0.0000000   2.7928460   2.7928460   0.0000000   2.7928460
 AtZNuc=   1.0000000   1.0000000   8.0000000   1.0000000   1.0000000   8.0000000   1.0000000   1.0000000   8.0000000   1.0000000

  Atom       271         272         273         274         275         276         277         278         279         280
 IAtWgt=           1          16           1           1          16           1           1          16           1           1
 AtmWgt=   1.0078250  15.9949146   1.0078250   1.0078250  15.9949146   1.0078250   1.0078250  15.9949146   1.0078250   1.0078250
 NucSpn=           1           0           1           1           0           1           1           0           1           1
 AtZEff=   0.0000000   0.0000000   0.0000000   0.0000000   0.0000000   0.0000000   0.0000000   0.0000000   0.0000000   0.0000000
 NQMom=    0.0000000   0.0000000   0.0000000   0.0000000   0.0000000   0.0000000   0.0000000   0.0000000   0.0000000   0.0000000
 NMagM=    2.7928460   0.0000000   2.7928460   2.7928460   0.0000000   2.7928460   2.7928460   0.0000000   2.7928460   2.7928460
 AtZNuc=   1.0000000   8.0000000   1.0000000   1.0000000   8.0000000   1.0000000   1.0000000   8.0000000   1.0000000   1.0000000

  Atom       281         282         283         284         285         286         287         288         289         290
 IAtWgt=          16           1           1          16           1           1          16           1           1          16
 AtmWgt=  15.9949146   1.0078250   1.0078250  15.9949146   1.0078250   1.0078250  15.9949146   1.0078250   1.0078250  15.9949146
 NucSpn=           0           1           1           0           1           1           0           1           1           0
 AtZEff=   0.0000000   0.0000000   0.0000000   0.0000000   0.0000000   0.0000000   0.0000000   0.0000000   0.0000000   0.0000000
 NQMom=    0.0000000   0.0000000   0.0000000   0.0000000   0.0000000   0.0000000   0.0000000   0.0000000   0.0000000   0.0000000
 NMagM=    0.0000000   2.7928460   2.7928460   0.0000000   2.7928460   2.7928460   0.0000000   2.7928460   2.7928460   0.0000000
 AtZNuc=   8.0000000   1.0000000   1.0000000   8.0000000   1.0000000   1.0000000   8.0000000   1.0000000   1.0000000   8.0000000

  Atom       291         292         293         294         295         296         297         298         299         300
 IAtWgt=           1           1          16           1           1          16           1           1          16           1
 AtmWgt=   1.0078250   1.0078250  15.9949146   1.0078250   1.0078250  15.9949146   1.0078250   1.0078250  15.9949146   1.0078250
 NucSpn=           1           1           0           1           1           0           1           1           0           1
 AtZEff=   0.0000000   0.0000000   0.0000000   0.0000000   0.0000000   0.0000000   0.0000000   0.0000000   0.0000000   0.0000000
 NQMom=    0.0000000   0.0000000   0.0000000   0.0000000   0.0000000   0.0000000   0.0000000   0.0000000   0.0000000   0.0000000
 NMagM=    2.7928460   2.7928460   0.0000000   2.7928460   2.7928460   0.0000000   2.7928460   2.7928460   0.0000000   2.7928460
 AtZNuc=   1.0000000   1.0000000   8.0000000   1.0000000   1.0000000   8.0000000   1.0000000   1.0000000   8.0000000   1.0000000

  Atom       301         302         303         304         305         306         307         308         309         310
 IAtWgt=           1          16           1           1          16           1           1          16           1           1
 AtmWgt=   1.0078250  15.9949146   1.0078250   1.0078250  15.9949146   1.0078250   1.0078250  15.9949146   1.0078250   1.0078250
 NucSpn=           1           0           1           1           0           1           1           0           1           1
 AtZEff=   0.0000000   0.0000000   0.0000000   0.0000000   0.0000000   0.0000000   0.0000000   0.0000000   0.0000000   0.0000000
 NQMom=    0.0000000   0.0000000   0.0000000   0.0000000   0.0000000   0.0000000   0.0000000   0.0000000   0.0000000   0.0000000
 NMagM=    2.7928460   0.0000000   2.7928460   2.7928460   0.0000000   2.7928460   2.7928460   0.0000000   2.7928460   2.7928460
 AtZNuc=   1.0000000   8.0000000   1.0000000   1.0000000   8.0000000   1.0000000   1.0000000   8.0000000   1.0000000   1.0000000

  Atom       311         312         313         314         315         316         317         318         319         320
 IAtWgt=          16           1           1          16           1           1          16           1           1          16
 AtmWgt=  15.9949146   1.0078250   1.0078250  15.9949146   1.0078250   1.0078250  15.9949146   1.0078250   1.0078250  15.9949146
 NucSpn=           0           1           1           0           1           1           0           1           1           0
 AtZEff=   0.0000000   0.0000000   0.0000000   0.0000000   0.0000000   0.0000000   0.0000000   0.0000000   0.0000000   0.0000000
 NQMom=    0.0000000   0.0000000   0.0000000   0.0000000   0.0000000   0.0000000   0.0000000   0.0000000   0.0000000   0.0000000
 NMagM=    0.0000000   2.7928460   2.7928460   0.0000000   2.7928460   2.7928460   0.0000000   2.7928460   2.7928460   0.0000000
 AtZNuc=   8.0000000   1.0000000   1.0000000   8.0000000   1.0000000   1.0000000   8.0000000   1.0000000   1.0000000   8.0000000

  Atom       321         322         323         324         325         326         327         328         329         330
 IAtWgt=           1           1          16           1           1          16           1           1          16           1
 AtmWgt=   1.0078250   1.0078250  15.9949146   1.0078250   1.0078250  15.9949146   1.0078250   1.0078250  15.9949146   1.0078250
 NucSpn=           1           1           0           1           1           0           1           1           0           1
 AtZEff=   0.0000000   0.0000000   0.0000000   0.0000000   0.0000000   0.0000000   0.0000000   0.0000000   0.0000000   0.0000000
 NQMom=    0.0000000   0.0000000   0.0000000   0.0000000   0.0000000   0.0000000   0.0000000   0.0000000   0.0000000   0.0000000
 NMagM=    2.7928460   2.7928460   0.0000000   2.7928460   2.7928460   0.0000000   2.7928460   2.7928460   0.0000000   2.7928460
 AtZNuc=   1.0000000   1.0000000   8.0000000   1.0000000   1.0000000   8.0000000   1.0000000   1.0000000   8.0000000   1.0000000

  Atom       331         332         333         334         335         336         337         338         339         340
 IAtWgt=           1          16           1           1          16           1           1          16           1           1
 AtmWgt=   1.0078250  15.9949146   1.0078250   1.0078250  15.9949146   1.0078250   1.0078250  15.9949146   1.0078250   1.0078250
 NucSpn=           1           0           1           1           0           1           1           0           1           1
 AtZEff=   0.0000000   0.0000000   0.0000000   0.0000000   0.0000000   0.0000000   0.0000000   0.0000000   0.0000000   0.0000000
 NQMom=    0.0000000   0.0000000   0.0000000   0.0000000   0.0000000   0.0000000   0.0000000   0.0000000   0.0000000   0.0000000
 NMagM=    2.7928460   0.0000000   2.7928460   2.7928460   0.0000000   2.7928460   2.7928460   0.0000000   2.7928460   2.7928460
 AtZNuc=   1.0000000   8.0000000   1.0000000   1.0000000   8.0000000   1.0000000   1.0000000   8.0000000   1.0000000   1.0000000

  Atom       341         342         343         344         345         346         347         348         349         350
 IAtWgt=          16           1           1          16           1           1          16           1           1          16
 AtmWgt=  15.9949146   1.0078250   1.0078250  15.9949146   1.0078250   1.0078250  15.9949146   1.0078250   1.0078250  15.9949146
 NucSpn=           0           1           1           0           1           1           0           1           1           0
 AtZEff=   0.0000000   0.0000000   0.0000000   0.0000000   0.0000000   0.0000000   0.0000000   0.0000000   0.0000000   0.0000000
 NQMom=    0.0000000   0.0000000   0.0000000   0.0000000   0.0000000   0.0000000   0.0000000   0.0000000   0.0000000   0.0000000
 NMagM=    0.0000000   2.7928460   2.7928460   0.0000000   2.7928460   2.7928460   0.0000000   2.7928460   2.7928460   0.0000000
 AtZNuc=   8.0000000   1.0000000   1.0000000   8.0000000   1.0000000   1.0000000   8.0000000   1.0000000   1.0000000   8.0000000

  Atom       351         352         353         354         355         356         357         358         359         360
 IAtWgt=           1           1          16           1           1          16           1           1          16           1
 AtmWgt=   1.0078250   1.0078250  15.9949146   1.0078250   1.0078250  15.9949146   1.0078250   1.0078250  15.9949146   1.0078250
 NucSpn=           1           1           0           1           1           0           1           1           0           1
 AtZEff=   0.0000000   0.0000000   0.0000000   0.0000000   0.0000000   0.0000000   0.0000000   0.0000000   0.0000000   0.0000000
 NQMom=    0.0000000   0.0000000   0.0000000   0.0000000   0.0000000   0.0000000   0.0000000   0.0000000   0.0000000   0.0000000
 NMagM=    2.7928460   2.7928460   0.0000000   2.7928460   2.7928460   0.0000000   2.7928460   2.7928460   0.0000000   2.7928460
 AtZNuc=   1.0000000   1.0000000   8.0000000   1.0000000   1.0000000   8.0000000   1.0000000   1.0000000   8.0000000   1.0000000

  Atom       361         362         363         364         365         366         367         368         369         370
 IAtWgt=           1          16           1           1          16           1           1          16           1           1
 AtmWgt=   1.0078250  15.9949146   1.0078250   1.0078250  15.9949146   1.0078250   1.0078250  15.9949146   1.0078250   1.0078250
 NucSpn=           1           0           1           1           0           1           1           0           1           1
 AtZEff=   0.0000000   0.0000000   0.0000000   0.0000000   0.0000000   0.0000000   0.0000000   0.0000000   0.0000000   0.0000000
 NQMom=    0.0000000   0.0000000   0.0000000   0.0000000   0.0000000   0.0000000   0.0000000   0.0000000   0.0000000   0.0000000
 NMagM=    2.7928460   0.0000000   2.7928460   2.7928460   0.0000000   2.7928460   2.7928460   0.0000000   2.7928460   2.7928460
 AtZNuc=   1.0000000   8.0000000   1.0000000   1.0000000   8.0000000   1.0000000   1.0000000   8.0000000   1.0000000   1.0000000

  Atom       371         372         373         374         375         376         377         378         379         380
 IAtWgt=          16           1           1          16           1           1          16           1           1          16
 AtmWgt=  15.9949146   1.0078250   1.0078250  15.9949146   1.0078250   1.0078250  15.9949146   1.0078250   1.0078250  15.9949146
 NucSpn=           0           1           1           0           1           1           0           1           1           0
 AtZEff=   0.0000000   0.0000000   0.0000000   0.0000000   0.0000000   0.0000000   0.0000000   0.0000000   0.0000000   0.0000000
 NQMom=    0.0000000   0.0000000   0.0000000   0.0000000   0.0000000   0.0000000   0.0000000   0.0000000   0.0000000   0.0000000
 NMagM=    0.0000000   2.7928460   2.7928460   0.0000000   2.7928460   2.7928460   0.0000000   2.7928460   2.7928460   0.0000000
 AtZNuc=   8.0000000   1.0000000   1.0000000   8.0000000   1.0000000   1.0000000   8.0000000   1.0000000   1.0000000   8.0000000

  Atom       381         382         383         384         385
 IAtWgt=           1           1          16           1           1
 AtmWgt=   1.0078250   1.0078250  15.9949146   1.0078250   1.0078250
 NucSpn=           1           1           0           1           1
 AtZEff=   0.0000000   0.0000000   0.0000000   0.0000000   0.0000000
 NQMom=    0.0000000   0.0000000   0.0000000   0.0000000   0.0000000
 NMagM=    2.7928460   2.7928460   0.0000000   2.7928460   2.7928460
 AtZNuc=   1.0000000   1.0000000   8.0000000   1.0000000   1.0000000
 Leave Link  101 at Fri May  4 17:35:20 2018, MaxMem= 14763950080 cpu:        38.0
 (Enter /cm/shared/gaussian/g09.e01/intel64-sandybridge/g09/l103.exe)

 GradGradGradGradGradGradGradGradGradGradGradGradGradGradGradGradGradGrad
 Berny optimization.
 Initialization pass.
 Trust Radius=3.00D-01 FncErr=1.00D-07 GrdErr=1.00D-07
 Number of steps in this run=      2 maximum allowed number of steps=      2.
 GradGradGradGradGradGradGradGradGradGradGradGradGradGradGradGradGradGrad

 Leave Link  103 at Fri May  4 17:35:20 2018, MaxMem= 14763950080 cpu:         6.1
 (Enter /cm/shared/gaussian/g09.e01/intel64-sandybridge/g09/l202.exe)
 Symmetry turned off by external request.
 Stoichiometry    BrH256O128(1-)
 Framework group  C1[X(BrH256O128)]
 Deg. of freedom  1149
 Full point group                 C1      NOp   1
                          Input orientation:                          
 ---------------------------------------------------------------------
 Center     Atomic      Atomic             Coordinates (Angstroms)
 Number     Number       Type             X           Y           Z
 ---------------------------------------------------------------------
      1         35           0       20.000000   20.000000   20.000000
      2          8           0       22.410000   21.140000   21.830000
      3          1           0       22.590000   20.400000   22.400000
      4          1           0       21.580000   20.920000   21.400000
      5          8           0       22.490000   18.550000   18.480000
      6          1           0       21.770000   18.920000   18.990000
      7          1           0       23.260000   19.070000   18.730000
      8          8           0       17.460000   18.750000   18.600000
      9          1           0       18.170000   18.670000   19.230000
     10          1           0       17.040000   19.580000   18.800000
     11          8           0       18.190000   21.830000   22.090000
     12          1           0       18.300000   21.110000   21.470000
     13          1           0       18.800000   22.500000   21.780000
     14          8           0       21.680000   22.610000   18.460000
     15          1           0       21.420000   23.530000   18.570000
     16          1           0       20.990000   22.120000   18.900000
     17          8           0       18.360000   17.490000   21.930000
     18          1           0       18.190000   17.940000   22.750000
     19          1           0       18.850000   18.120000   21.400000
     20          8           0       19.870000   20.880000   16.290000
     21          1           0       20.330000   20.250000   15.740000
     22          1           0       20.050000   20.590000   17.190000
     23          8           0       21.910000   16.650000   20.820000
     24          1           0       21.150000   16.240000   20.400000
     25          1           0       22.210000   17.300000   20.180000
     26          8           0       23.930000   21.010000   18.800000
     27          1           0       23.210000   21.580000   19.050000
     28          1           0       23.980000   21.090000   17.850000
     29          8           0       18.980000   24.090000   20.430000
     30          1           0       18.750000   23.640000   19.610000
     31          1           0       19.710000   24.670000   20.190000
     32          8           0       16.720000   21.740000   17.930000
     33          1           0       17.440000   22.350000   18.080000
     34          1           0       16.060000   22.240000   17.460000
     35          8           0       21.300000   22.440000   23.920000
     36          1           0       21.730000   21.690000   24.330000
     37          1           0       21.380000   22.270000   22.980000
     38          8           0       22.110000   17.650000   23.510000
     39          1           0       22.070000   17.550000   22.560000
     40          1           0       21.620000   16.900000   23.850000
     41          8           0       22.420000   19.260000   15.500000
     42          1           0       22.190000   19.840000   16.230000
     43          1           0       22.240000   18.380000   15.840000
     44          8           0       18.760000   23.560000   17.750000
     45          1           0       19.090000   23.190000   16.930000
     46          1           0       18.770000   24.510000   17.610000
     47          8           0       18.450000   21.320000   24.850000
     48          1           0       18.430000   21.470000   23.910000
     49          1           0       19.360000   21.470000   25.100000
     50          8           0       19.370000   15.420000   19.770000
     51          1           0       18.780000   15.700000   20.470000
     52          1           0       18.980000   14.620000   19.430000
     53          8           0       16.860000   19.850000   15.630000
     54          1           0       17.130000   20.000000   16.530000
     55          1           0       17.150000   20.630000   15.160000
     56          8           0       15.750000   17.090000   21.160000
     57          1           0       16.610000   17.330000   21.510000
     58          1           0       15.160000   17.770000   21.490000
     59          8           0       15.530000   21.800000   21.310000
     60          1           0       15.830000   22.000000   20.420000
     61          1           0       16.230000   22.100000   21.880000
     62          8           0       23.410000   24.170000   22.000000
     63          1           0       23.230000   23.230000   21.930000
     64          1           0       22.570000   24.560000   22.240000
     65          8           0       15.070000   17.470000   18.620000
     66          1           0       15.860000   17.880000   18.270000
     67          1           0       15.170000   17.510000   19.570000
     68          8           0       22.270000   19.950000   24.940000
     69          1           0       22.060000   19.140000   24.470000
     70          1           0       22.900000   19.680000   25.610000
     71          8           0       17.480000   18.580000   24.310000
     72          1           0       16.540000   18.410000   24.370000
     73          1           0       17.560000   19.530000   24.420000
     74          8           0       25.820000   21.480000   20.820000
     75          1           0       25.430000   21.570000   21.690000
     76          1           0       25.080000   21.300000   20.250000
     77          8           0       19.940000   14.810000   16.980000
     78          1           0       20.530000   15.420000   17.430000
     79          1           0       19.350000   15.380000   16.480000
     80          8           0       20.110000   24.830000   23.760000
     81          1           0       19.380000   24.910000   24.370000
     82          1           0       20.300000   23.890000   23.730000
     83          8           0       21.250000   25.430000   19.910000
     84          1           0       21.590000   26.040000   20.560000
     85          1           0       22.020000   25.030000   19.520000
     86          8           0       16.970000   16.570000   16.020000
     87          1           0       17.300000   16.570000   15.120000
     88          1           0       16.880000   17.500000   16.240000
     89          8           0       17.780000   14.680000   22.280000
     90          1           0       16.880000   14.520000   22.010000
     91          1           0       17.810000   15.610000   22.490000
     92          8           0       18.660000   22.380000   14.160000
     93          1           0       18.690000   21.670000   13.510000
     94          1           0       19.010000   21.990000   14.960000
     95          8           0       23.760000   14.820000   21.150000
     96          1           0       23.400000   14.190000   20.530000
     97          1           0       23.120000   15.540000   21.160000
     98          8           0       14.280000   19.430000   21.680000
     99          1           0       13.750000   19.570000   20.900000
    100          1           0       14.660000   20.290000   21.870000
    101          8           0       19.680000   17.620000   25.900000
    102          1           0       19.940000   16.800000   25.470000
    103          1           0       19.140000   18.070000   25.260000
    104          8           0       23.850000   22.170000   16.400000
    105          1           0       23.720000   21.970000   15.470000
    106          1           0       23.470000   23.040000   16.510000
    107          8           0       25.760000   18.710000   21.210000
    108          1           0       26.120000   18.460000   22.060000
    109          1           0       25.650000   19.660000   21.270000
    110          8           0       16.760000   26.100000   20.370000
    111          1           0       17.530000   25.540000   20.420000
    112          1           0       16.900000   26.770000   21.040000
    113          8           0       22.140000   16.310000   15.570000
    114          1           0       21.640000   15.860000   14.880000
    115          1           0       22.360000   15.620000   16.190000
    116          8           0       25.670000   16.700000   19.260000
    117          1           0       25.590000   15.780000   19.510000
    118          1           0       25.560000   17.180000   20.080000
    119          8           0       25.060000   16.290000   16.630000
    120          1           0       24.250000   16.810000   16.640000
    121          1           0       25.540000   16.590000   17.400000
    122          8           0       23.690000   24.970000   18.330000
    123          1           0       24.280000   24.240000   18.120000
    124          1           0       24.270000   25.730000   18.400000
    125          8           0       26.540000   18.930000   17.420000
    126          1           0       27.070000   19.590000   17.870000
    127          1           0       26.020000   18.520000   18.110000
    128          8           0       17.270000   13.880000   18.390000
    129          1           0       16.890000   14.650000   17.980000
    130          1           0       17.150000   13.180000   17.740000
    131          8           0       21.120000   17.480000   13.130000
    132          1           0       21.390000   16.570000   13.010000
    133          1           0       21.430000   17.710000   14.000000
    134          8           0       14.340000   19.640000   15.080000
    135          1           0       14.350000   19.390000   14.150000
    136          1           0       15.270000   19.640000   15.330000
    137          8           0       15.810000   23.420000   24.500000
    138          1           0       15.190000   23.230000   23.800000
    139          1           0       16.120000   22.560000   24.780000
    140          8           0       19.790000   25.030000   14.940000
    141          1           0       19.720000   25.240000   15.880000
    142          1           0       19.720000   25.870000   14.500000
    143          8           0       23.710000   21.030000   13.550000
    144          1           0       22.920000   21.470000   13.220000
    145          1           0       23.370000   20.350000   14.130000
    146          8           0       14.710000   18.010000   24.090000
    147          1           0       14.280000   18.310000   23.290000
    148          1           0       13.990000   17.780000   24.680000
    149          8           0       19.010000   27.310000   21.810000
    150          1           0       19.670000   27.510000   21.150000
    151          1           0       19.240000   26.430000   22.120000
    152          8           0       25.680000   24.940000   20.540000
    153          1           0       25.820000   25.860000   20.750000
    154          1           0       24.860000   24.710000   20.970000
    155          8           0       25.530000   21.620000   23.740000
    156          1           0       25.490000   22.270000   24.430000
    157          1           0       26.300000   21.100000   23.940000
    158          8           0       18.660000   26.290000   17.510000
    159          1           0       18.320000   27.180000   17.450000
    160          1           0       19.610000   26.400000   17.530000
    161          8           0       13.340000   19.360000   17.500000
    162          1           0       13.950000   19.500000   16.770000
    163          1           0       13.580000   18.510000   17.850000
    164          8           0       20.380000   14.840000   24.630000
    165          1           0       19.480000   14.510000   24.590000
    166          1           0       20.910000   14.060000   24.810000
    167          8           0       15.790000   25.660000   17.300000
    168          1           0       16.670000   25.680000   17.680000
    169          1           0       15.600000   24.730000   17.180000
    170          8           0       24.970000   15.870000   23.720000
    171          1           0       24.390000   15.360000   23.160000
    172          1           0       25.220000   16.620000   23.190000
    173          8           0       22.460000   24.560000   14.950000
    174          1           0       21.500000   24.560000   14.910000
    175          1           0       22.730000   24.380000   14.050000
    176          8           0       14.480000   23.100000   17.010000
    177          1           0       13.830000   22.550000   17.450000
    178          1           0       14.210000   23.100000   16.090000
    179          8           0       18.290000   16.770000   13.660000
    180          1           0       19.240000   16.890000   13.740000
    181          1           0       18.090000   17.050000   12.770000
    182          8           0       15.030000   14.380000   21.500000
    183          1           0       14.900000   15.210000   21.040000
    184          1           0       14.300000   14.340000   22.120000
    185          8           0       21.340000   26.590000   16.970000
    186          1           0       21.900000   26.620000   16.190000
    187          1           0       21.960000   26.490000   17.700000
    188          8           0       22.250000   26.560000   24.200000
    189          1           0       22.490000   26.890000   23.340000
    190          1           0       21.690000   25.800000   24.020000
    191          8           0       13.770000   15.460000   17.390000
    192          1           0       14.520000   16.060000   17.320000
    193          1           0       13.070000   16.000000   17.740000
    194          8           0       24.320000   22.750000   26.500000
    195          1           0       23.760000   22.300000   25.860000
    196          1           0       23.770000   22.810000   27.290000
    197          8           0       13.620000   24.440000   20.260000
    198          1           0       14.270000   24.590000   20.940000
    199          1           0       14.070000   24.670000   19.440000
    200          8           0       27.660000   21.090000   18.750000
    201          1           0       27.380000   21.810000   18.190000
    202          1           0       27.280000   21.280000   19.600000
    203          8           0       21.200000   20.740000   27.950000
    204          1           0       21.680000   20.240000   27.290000
    205          1           0       21.070000   20.120000   28.670000
    206          8           0       22.900000   12.920000   19.430000
    207          1           0       22.140000   12.880000   18.850000
[...]
   Z335      39.81653  -0.00764   0.00000  -0.00537  -0.00483  39.81170
   X336      36.18826   0.00580   0.00000   0.00681   0.00665  36.19490
   Y336      21.29721  -0.00350   0.00000  -0.00764  -0.00752  21.28969
   Z336      41.44169   0.00600   0.00000   0.00276   0.00330  41.44499
   X337      33.67492  -0.00944   0.00000  -0.00836  -0.00853  33.66639
   Y337      20.76809  -0.00150   0.00000  -0.00104  -0.00098  20.76711
   Z337      40.19447  -0.00200   0.00000  -0.00584  -0.00527  40.18920
   X338      40.93147  -0.00778   0.00000  -0.00074  -0.00116  40.93030
   Y338      27.47662   0.00598   0.00000   0.00953   0.00939  27.48601
   Z338      24.52865   0.00190   0.00000   0.00090   0.00127  24.52991
   X339      40.42124  -0.00040   0.00000   0.00000  -0.00042  40.42082
   Y339      26.39947   0.00136   0.00000   0.00396   0.00379  26.40326
   Z339      23.14915   0.00040   0.00000   0.00217   0.00256  23.15171
   X340      42.74561   0.01364   0.00000   0.01225   0.01182  42.75743
   Y340      27.40103   0.00115   0.00000   0.00287   0.00275  27.40378
   Z340      24.49085   0.00295   0.00000   0.00570   0.00605  24.49690
   X341      22.73341  -0.00603   0.00000  -0.00066  -0.00114  22.73227
   Y341      44.31408   0.00782   0.00000   0.00079   0.00079  44.31487
   Z341      46.07152  -0.01611   0.00000  -0.01491  -0.01470  46.05682
   X342      21.76965  -0.00393   0.00000  -0.00142  -0.00187  21.76778
   Y342      43.10465  -0.00601   0.00000  -0.00106  -0.00106  43.10359
   Z342      46.99749   0.00874   0.00000   0.00783   0.00808  47.00557
   X343      24.41526   0.01232   0.00000   0.00789   0.00742  24.42268
   Y343      44.10621  -0.00339   0.00000  -0.00269  -0.00265  44.10355
   Z343      46.67624   0.00835   0.00000   0.00828   0.00847  46.68471
   X344      27.70339  -0.01631   0.00000  -0.01267  -0.01341  27.68998
   Y344      49.94546   0.01724   0.00000   0.01564   0.01537  49.96083
   Z344      28.49707  -0.01463   0.00000  -0.01581  -0.01576  28.48131
   X345      28.57266   0.00341   0.00000  -0.00231  -0.00303  28.56963
   Y345      50.21002  -0.00779   0.00000  -0.01211  -0.01234  50.19769
   Z345      30.06554   0.00621   0.00000  -0.00064  -0.00061  30.06494
   X346      28.23251   0.00944   0.00000   0.01066   0.00995  28.24246
   Y346      48.30140  -0.00696   0.00000   0.00194   0.00167  48.30307
   Z346      27.96795  -0.00084   0.00000  -0.00108  -0.00100  27.96694
   X347      47.82897  -0.00323   0.00000  -0.01084  -0.01155  47.81742
   Y347      51.45724  -0.01326   0.00000  -0.00788  -0.00772  51.44952
   Z347      33.99617   0.00995   0.00000   0.00542   0.00524  34.00142
   X348      48.07463   0.00321   0.00000   0.00439   0.00366  48.07830
   Y348      53.21469   0.01303   0.00000   0.00708   0.00724  53.22193
   Z348      34.27963   0.00239   0.00000   0.00249   0.00228  34.28191
   X349      46.99749  -0.00227   0.00000   0.00427   0.00355  47.00104
   Y349      51.38165  -0.00049   0.00000  -0.00095  -0.00085  51.38081
   Z349      32.38991  -0.01997   0.00000  -0.02168  -0.02185  32.36806
   X350      42.04641   0.01363   0.00000   0.01148   0.01109  42.05750
   Y350      43.72826   0.02413   0.00000   0.01326   0.01373  43.74199
   Z350      54.44301  -0.00065   0.00000  -0.00170  -0.00167  54.44134
   X351      41.19603  -0.01177   0.00000  -0.00586  -0.00622  41.18981
   Y351      42.15979  -0.02250   0.00000  -0.01222  -0.01177  42.14802
   Z351      54.25404  -0.00850   0.00000  -0.01298  -0.01291  54.24113
   X352      42.97237   0.00259   0.00000   0.00386   0.00349  42.97586
   Y352      43.55819  -0.00068   0.00000  -0.00066  -0.00015  43.55803
   Z352      55.99259   0.00381   0.00000   0.00458   0.00461  55.99719
   X353      39.21182   0.00230   0.00000   0.00289   0.00210  39.21391
   Y353      55.16111   0.01465   0.00000   0.01631   0.01626  55.17737
   Z353      30.80254  -0.00266   0.00000   0.00232   0.00216  30.80469
   X354      40.08109  -0.00461   0.00000  -0.00944  -0.01021  40.07089
   Y354      53.95168  -0.00943   0.00000  -0.01053  -0.01054  53.94114
   Z354      31.84189   0.00030   0.00000  -0.00455  -0.00469  31.83719
   X355      37.49217  -0.00055   0.00000   0.00352   0.00273  37.49490
   Y355      54.57529  -0.00270   0.00000  -0.00090  -0.00098  54.57432
   Z355      30.78364   0.00100   0.00000   0.00014   0.00000  30.78364
   X356      22.94128   0.00567   0.00000   0.01035   0.01004  22.95131
   Y356      28.79943   0.01427   0.00000   0.01266   0.01252  28.81195
   Z356      38.79608  -0.00219   0.00000   0.00372   0.00423  38.80031
   X357      23.35702   0.00308   0.00000   0.00203   0.00176  23.35877
   Y357      27.06088  -0.01378   0.00000  -0.00944  -0.00957  27.05131
   Z357      39.06064  -0.00842   0.00000  -0.01860  -0.01806  39.04258
   X358      21.88303  -0.00631   0.00000  -0.00692  -0.00722  21.87581
   Y358      29.23406  -0.00062   0.00000  -0.00305  -0.00318  29.23088
   Z358      40.19447   0.00639   0.00000   0.00543   0.00594  40.20042
   X359      39.15513  -0.01005   0.00000  -0.01385  -0.01441  39.14071
   Y359      52.43990   0.01682   0.00000   0.00836   0.00869  52.44859
   Z359      49.75649   0.00003   0.00000  -0.00140  -0.00151  49.75498
   X360      39.77874   0.01092   0.00000   0.01492   0.01435  39.79309
   Y360      51.49504  -0.00352   0.00000   0.00336   0.00367  51.49871
   Z360      48.33919  -0.01055   0.00000  -0.00681  -0.00691  48.33228
   X361      38.90946   0.00123   0.00000   0.00453   0.00400  38.91346
   Y361      51.21158  -0.01185   0.00000  -0.00998  -0.00963  51.20195
   Z361      51.04150   0.00933   0.00000   0.00631   0.00622  51.04773
   X362      33.63713   0.00295   0.00000   0.00539   0.00511  33.64223
   Y362      22.24208  -0.00102   0.00000  -0.00013  -0.00025  22.24182
   Z362      31.18048   0.00782   0.00000   0.00253   0.00307  31.18355
   X363      33.03241  -0.00746   0.00000  -0.00873  -0.00904  33.02337
   Y363      23.11135   0.01160   0.00000   0.01472   0.01456  23.12591
   Z363      29.70649  -0.00428   0.00000   0.00151   0.00204  29.70854
   X364      34.69537   0.00377   0.00000   0.00278   0.00252  34.69789
   Y364      20.93817  -0.00816   0.00000  -0.00965  -0.00977  20.92839
   Z364      30.51908  -0.00120   0.00000  -0.00125  -0.00070  30.51838
   X365      20.06889  -0.00265   0.00000  -0.00101  -0.00143  20.06746
   Y365      36.16936  -0.01259   0.00000  -0.00902  -0.00921  36.16015
   Z365      38.17247  -0.00808   0.00000  -0.00706  -0.00666  38.16580
   X366      20.65471   0.00181   0.00000   0.00270   0.00230  20.65700
   Y366      35.16780   0.00204   0.00000   0.00323   0.00307  35.17087
   Z366      39.57087   0.00265   0.00000   0.00235   0.00276  39.57362
   X367      20.25786   0.00396   0.00000   0.00543   0.00498  20.26285
   Y367      37.88901   0.00869   0.00000   0.00287   0.00268  37.89169
   Z367      38.73939   0.00449   0.00000   0.00178   0.00214  38.74153
   X368      25.41682  -0.01905   0.00000  -0.01351  -0.01378  25.40304
   Y368      24.30188  -0.01002   0.00000   0.00127   0.00110  24.30298
   Z368      35.45126   0.01222   0.00000   0.01363   0.01421  35.46547
   X369      25.49241   0.00418   0.00000   0.00497   0.00467  25.49707
   Y369      25.87035   0.01879   0.00000   0.01375   0.01357  25.88392
   Z369      34.56309  -0.01163   0.00000  -0.01019  -0.00964  34.55345
   X370      27.13647   0.01435   0.00000   0.00838   0.00812  27.14459
   Y370      23.96173  -0.00563   0.00000  -0.00863  -0.00876  23.95296
   Z370      35.88590  -0.00103   0.00000  -0.00596  -0.00539  35.88051
   X371      39.85432  -0.01002   0.00000  -0.01947  -0.01960  39.83473
   Y371      19.61536  -0.01272   0.00000  -0.00264  -0.00244  19.61292
   Z371      42.99127  -0.00310   0.00000  -0.00212  -0.00158  42.98968
   X372      39.77874   0.00567   0.00000   0.01167   0.01152  39.79025
   Y372      21.37280   0.02064   0.00000   0.01732   0.01754  21.39034
   Z372      43.38811   0.00745   0.00000   0.00875   0.00925  43.39736
   X373      39.53307   0.00119   0.00000   0.00223   0.00213  39.53520
   Y373      18.78388  -0.00043   0.00000  -0.00125  -0.00102  18.78286
   Z373      44.57864   0.00136   0.00000   0.00253   0.00308  44.58172
   X374      25.41682  -0.00258   0.00000   0.00152   0.00094  25.41775
   Y374      49.56752  -0.00232   0.00000  -0.00698  -0.00699  49.56052
   Z374      43.16134  -0.01193   0.00000  -0.00952  -0.00944  43.15190
   X375      25.22784  -0.00267   0.00000  -0.00389  -0.00445  25.22339
   Y375      48.77383  -0.00251   0.00000   0.00088   0.00090  48.77473
   Z375      44.76761   0.01057   0.00000   0.00771   0.00780  44.77542
   X376      27.02308   0.00430   0.00000   0.00232   0.00172  27.02480
   Y376      50.41789   0.00418   0.00000   0.00487   0.00489  50.42278
   Z376      43.23693   0.00027   0.00000  -0.00046  -0.00041  43.23652
   X377      28.34589  -0.01829   0.00000  -0.00993  -0.01030  28.33559
   Y377      42.12200   0.00378   0.00000   0.00220   0.00243  42.12443
   Z377      53.55484  -0.00377   0.00000  -0.00585  -0.00565  53.54919
   X378      30.00885   0.01867   0.00000   0.01503   0.01465  30.02350
   Y378      41.97082  -0.00009   0.00000   0.00213   0.00237  41.97319
   Z378      52.87454  -0.00107   0.00000   0.00321   0.00340  52.87793
   X379      28.53486   0.00394   0.00000   0.00407   0.00373  28.53859
   Y379      41.72515  -0.00196   0.00000  -0.00180  -0.00152  41.72363
   Z379      55.31228   0.00329   0.00000  -0.00085  -0.00065  55.31163
   X380      44.72982  -0.00457   0.00000   0.00305   0.00234  44.73215
   Y380      45.63689   0.01011   0.00000   0.01333   0.01323  45.65012
   Z380      23.58378  -0.00013   0.00000  -0.00020  -0.00023  23.58355
   X381      44.52195  -0.00150   0.00000  -0.00284  -0.00356  44.51838
   Y381      45.14556  -0.00319   0.00000  -0.00484  -0.00498  45.14058
   Z381      21.84523   0.00048   0.00000   0.00319   0.00317  21.84841
   X382      46.31719   0.00696   0.00000   0.00358   0.00288  46.32007
   Y382      44.91879  -0.00787   0.00000  -0.00995  -0.01002  44.90877
   Z382      24.07511   0.00300   0.00000   0.00339   0.00336  24.07847
   X383      26.87191  -0.01644   0.00000  -0.01941  -0.01965  26.85225
   Y383      33.18359   0.01651   0.00000   0.01390   0.01410  33.19769
   Z383      52.57218   0.00667   0.00000  -0.00518  -0.00479  52.56739
   X384      25.88925   0.00099   0.00000   0.00268   0.00247  25.89172
   Y384      31.87968  -0.00354   0.00000  -0.00339  -0.00319  31.87649
   Z384      53.36587   0.00004   0.00000  -0.00012   0.00030  53.36617
   X385      27.79787   0.01671   0.00000   0.01978   0.01954  27.81741
   Y385      32.33321  -0.01141   0.00000  -0.00815  -0.00797  32.32525
   Z385      51.28717  -0.00577   0.00000   0.00586   0.00626  51.29343
         Item               Value     Threshold  Converged?
 Maximum Force            0.032363     0.000450     NO 
 RMS     Force            0.010251     0.000300     NO 
 Maximum Displacement     0.031481     0.001800     NO 
 RMS     Displacement     0.008837     0.001200     NO 
 Predicted change in Energy=-7.079050D-02
 GradGradGradGradGradGradGradGradGradGradGradGradGradGradGradGradGradGrad

 Leave Link  103 at Fri May  4 20:08:39 2018, MaxMem= 14763950080 cpu:      2825.9
 (Enter /cm/shared/gaussian/g09.e01/intel64-sandybridge/g09/l9999.exe)
 1\1\GINC-POPLE07\Force\RPBE1PBE\CC-pVDZ\Br1H256O128(1-)\M.PELUSO\04-Ma
 y-2018\0\\#p PBE1PBE/cc-pvDZ force Counterpoise=2 noSymm\\forces on ch
 loride comput - NWATER: 128\\-1,1\Br,20.,20.,20.\O,22.41,21.14,21.83\H
 ,22.59,20.4,22.4\H,21.58,20.92,21.4\O,22.49,18.55,18.48\H,21.77,18.92,
 18.99\H,23.26,19.07,18.73\O,17.46,18.75,18.6\H,18.17,18.67,19.23\H,17.
 04,19.58,18.8\O,18.19,21.83,22.09\H,18.3,21.11,21.47\H,18.8,22.5,21.78
 \O,21.68,22.61,18.46\H,21.42,23.53,18.57\H,20.99,22.12,18.9\O,18.36,17
 .49,21.93\H,18.19,17.94,22.75\H,18.85,18.12,21.4\O,19.87,20.88,16.29\H
 ,20.33,20.25,15.74\H,20.05,20.59,17.19\O,21.91,16.65,20.82\H,21.15,16.
 24,20.4\H,22.21,17.3,20.18\O,23.93,21.01,18.8\H,23.21,21.58,19.05\H,23
 .98,21.09,17.85\O,18.98,24.09,20.43\H,18.75,23.64,19.61\H,19.71,24.67,
 20.19\O,16.72,21.74,17.93\H,17.44,22.35,18.08\H,16.06,22.24,17.46\O,21
 .3,22.44,23.92\H,21.73,21.69,24.33\H,21.38,22.27,22.98\O,22.11,17.65,2
 3.51\H,22.07,17.55,22.56\H,21.62,16.9,23.85\O,22.42,19.26,15.5\H,22.19
 ,19.84,16.23\H,22.24,18.38,15.84\O,18.76,23.56,17.75\H,19.09,23.19,16.
 93\H,18.77,24.51,17.61\O,18.45,21.32,24.85\H,18.43,21.47,23.91\H,19.36
 ,21.47,25.1\O,19.37,15.42,19.77\H,18.78,15.7,20.47\H,18.98,14.62,19.43
 \O,16.86,19.85,15.63\H,17.13,20.,16.53\H,17.15,20.63,15.16\O,15.75,17.
 09,21.16\H,16.61,17.33,21.51\H,15.16,17.77,21.49\O,15.53,21.8,21.31\H,
 15.83,22.,20.42\H,16.23,22.1,21.88\O,23.41,24.17,22.\H,23.23,23.23,21.
 93\H,22.57,24.56,22.24\O,15.07,17.47,18.62\H,15.86,17.88,18.27\H,15.17
 ,17.51,19.57\O,22.27,19.95,24.94\H,22.06,19.14,24.47\H,22.9,19.68,25.6
 1\O,17.48,18.58,24.31\H,16.54,18.41,24.37\H,17.56,19.53,24.42\O,25.82,
 21.48,20.82\H,25.43,21.57,21.69\H,25.08,21.3,20.25\O,19.94,14.81,16.98
 \H,20.53,15.42,17.43\H,19.35,15.38,16.48\O,20.11,24.83,23.76\H,19.38,2
 4.91,24.37\H,20.3,23.89,23.73\O,21.25,25.43,19.91\H,21.59,26.04,20.56\
 H,22.02,25.03,19.52\O,16.97,16.57,16.02\H,17.3,16.57,15.12\H,16.88,17.
 5,16.24\O,17.78,14.68,22.28\H,16.88,14.52,22.01\H,17.81,15.61,22.49\O,
 18.66,22.38,14.16\H,18.69,21.67,13.51\H,19.01,21.99,14.96\O,23.76,14.8
 2,21.15\H,23.4,14.19,20.53\H,23.12,15.54,21.16\O,14.28,19.43,21.68\H,1
 3.75,19.57,20.9\H,14.66,20.29,21.87\O,19.68,17.62,25.9\H,19.94,16.8,25
 .47\H,19.14,18.07,25.26\O,23.85,22.17,16.4\H,23.72,21.97,15.47\H,23.47
 ,23.04,16.51\O,25.76,18.71,21.21\H,26.12,18.46,22.06\H,25.65,19.66,21.
 27\O,16.76,26.1,20.37\H,17.53,25.54,20.42\H,16.9,26.77,21.04\O,22.14,1
 6.31,15.57\H,21.64,15.86,14.88\H,22.36,15.62,16.19\O,25.67,16.7,19.26\
 H,25.59,15.78,19.51\H,25.56,17.18,20.08\O,25.06,16.29,16.63\H,24.25,16
 .81,16.64\H,25.54,16.59,17.4\O,23.69,24.97,18.33\H,24.28,24.24,18.12\H
 ,24.27,25.73,18.4\O,26.54,18.93,17.42\H,27.07,19.59,17.87\H,26.02,18.5
 2,18.11\O,17.27,13.88,18.39\H,16.89,14.65,17.98\H,17.15,13.18,17.74\O,
 21.12,17.48,13.13\H,21.39,16.57,13.01\H,21.43,17.71,14.\O,14.34,19.64,
 15.08\H,14.35,19.39,14.15\H,15.27,19.64,15.33\O,15.81,23.42,24.5\H,15.
 19,23.23,23.8\H,16.12,22.56,24.78\O,19.79,25.03,14.94\H,19.72,25.24,15
 .88\H,19.72,25.87,14.5\O,23.71,21.03,13.55\H,22.92,21.47,13.22\H,23.37
 ,20.35,14.13\O,14.71,18.01,24.09\H,14.28,18.31,23.29\H,13.99,17.78,24.
 68\O,19.01,27.31,21.81\H,19.67,27.51,21.15\H,19.24,26.43,22.12\O,25.68
 ,24.94,20.54\H,25.82,25.86,20.75\H,24.86,24.71,20.97\O,25.53,21.62,23.
 74\H,25.49,22.27,24.43\H,26.3,21.1,23.94\O,18.66,26.29,17.51\H,18.32,2
 7.18,17.45\H,19.61,26.4,17.53\O,13.34,19.36,17.5\H,13.95,19.5,16.77\H,
 13.58,18.51,17.85\O,20.38,14.84,24.63\H,19.48,14.51,24.59\H,20.91,14.0
 6,24.81\O,15.79,25.66,17.3\H,16.67,25.68,17.68\H,15.6,24.73,17.18\O,24
 .97,15.87,23.72\H,24.39,15.36,23.16\H,25.22,16.62,23.19\O,22.46,24.56,
 14.95\H,21.5,24.56,14.91\H,22.73,24.38,14.05\O,14.48,23.1,17.01\H,13.8
 3,22.55,17.45\H,14.21,23.1,16.09\O,18.29,16.77,13.66\H,19.24,16.89,13.
 74\H,18.09,17.05,12.77\O,15.03,14.38,21.5\H,14.9,15.21,21.04\H,14.3,14
 .34,22.12\O,21.34,26.59,16.97\H,21.9,26.62,16.19\H,21.96,26.49,17.7\O,
 22.25,26.56,24.2\H,22.49,26.89,23.34\H,21.69,25.8,24.02\O,13.77,15.46,
 17.39\H,14.52,16.06,17.32\H,13.07,16.,17.74\O,24.32,22.75,26.5\H,23.76
 ,22.3,25.86\H,23.77,22.81,27.29\O,13.62,24.44,20.26\H,14.27,24.59,20.9
 4\H,14.07,24.67,19.44\O,27.66,21.09,18.75\H,27.38,21.81,18.19\H,27.28,
 21.28,19.6\O,21.2,20.74,27.95\H,21.68,20.24,27.29\H,21.07,20.12,28.67\
 O,22.9,12.92,19.43\H,22.14,12.88,18.85\H,23.65,12.96,18.84\O,22.18,13.
 27,16.12\H,21.29,13.6,16.25\H,22.06,12.44,15.65\O,16.22,24.23,13.94\H,
 15.71,23.53,13.54\H,17.04,23.81,14.19\O,18.07,22.25,27.61\H,18.13,21.3
 8,27.22\H,18.36,22.84,26.91\O,17.96,24.99,25.53\H,17.87,25.42,26.38\H,
 17.14,24.5,25.42\O,22.28,17.96,27.63\H,21.49,17.78,27.13\H,22.11,17.58
 ,28.49\O,27.67,22.97,22.15\H,27.,22.56,21.6\H,27.87,23.79,21.7\O,22.29
 ,13.11,23.52\H,22.84,12.71,24.19\H,22.91,13.54,22.92\O,21.25,21.76,12.
 55\H,20.76,22.44,12.09\H,21.23,21.01,11.97\O,24.78,17.47,26.31\H,24.73
 ,17.04,25.45\H,23.88,17.51,26.61\O,18.5,12.99,24.62\H,18.33,13.33,23.7
 4\H,17.62,12.84,24.99\O,16.28,13.89,15.21\H,16.41,14.09,14.28\H,16.16,
 14.75,15.62\O,27.35,24.12,18.41\H,26.69,24.19,19.1\H,26.89,24.37,17.61
 \O,27.16,21.07,15.45\H,27.01,20.39,16.1\H,26.3,21.23,15.06\O,26.78,18.
 07,23.85\H,27.7,18.26,23.64\H,26.64,18.48,24.7\O,25.98,24.8,23.78\H,26
 .47,24.43,23.05\H,25.18,25.15,23.38\O,22.48,27.49,21.64\H,23.31,27.56,
 21.16\H,22.03,28.32,21.48\O,20.48,11.92,18.76\H,20.05,11.81,19.61\H,19
 .76,11.97,18.13\O,16.18,26.41,23.58\H,16.99,26.45,24.09\H,15.66,25.74,
 24.03\O,24.55,14.18,15.05\H,24.74,14.82,15.73\H,23.73,13.78,15.32\O,28
 .99,19.03,20.7\H,28.2,19.09,20.17\H,29.23,19.93,20.89\O,16.21,15.93,26
 .74\H,16.03,15.14,26.22\H,17.17,16.02,26.71\O,15.8,12.08,20.13\H,16.71
 ,12.37,20.11\H,15.33,12.78,20.58\O,19.51,23.73,11.73\H,19.37,23.88,12.
 67\H,19.26,24.56,11.32\O,17.46,20.2,11.95\H,18.37,19.93,11.82\H,17.16,
 20.46,11.08\O,13.94,22.3,14.49\H,13.74,21.36,14.56\H,14.04,22.45,13.55
 \O,11.4,21.25,17.45\H,11.3,21.15,18.39\H,12.03,20.57,17.2\O,27.74,17.4
 6,15.24\H,28.24,16.85,15.78\H,27.09,17.84,15.83\O,18.76,16.61,28.61\H,
 19.32,16.96,27.92\H,18.6,15.7,28.35\O,26.48,19.59,26.4\H,27.18,19.03,2
 6.74\H,25.73,19.,26.33\O,20.09,19.52,10.92\H,20.32,18.78,11.48\H,19.78
 ,19.12,10.11\O,24.36,26.69,15.1\H,24.18,27.08,14.25\H,24.,25.8,15.04\O
 ,11.46,21.49,21.31\H,11.32,21.44,22.26\H,11.8,22.38,21.17\O,20.65,28.6
 1,19.66\H,21.4,29.,19.21\H,19.95,29.25,19.54\O,11.67,17.4,17.82\H,11.4
 7,17.18,18.73\H,11.78,18.35,17.81\O,26.1,13.88,19.1\H,26.25,13.45,18.2
 6\H,26.29,13.2,19.75\O,26.28,24.26,15.75\H,26.54,25.15,15.52\H,27.05,2
 3.72,15.56\O,25.22,16.16,13.17\H,24.98,15.86,14.05\H,25.62,17.02,13.31
 \O,14.69,19.11,12.38\H,15.53,19.58,12.33\H,14.94,18.19,12.39\O,27.82,1
 5.2,17.13\H,28.54,14.65,17.43\H,27.28,15.34,17.91\O,23.46,11.16,21.58\
 H,23.18,11.73,20.86\H,22.65,10.87,21.99\O,18.45,14.36,27.2\H,17.73,13.
 89,27.63\H,18.54,13.93,26.35\O,14.44,28.04,19.82\H,15.26,27.56,19.95\H
 ,13.9,27.46,19.29\O,18.74,11.17,21.07\H,19.15,11.27,21.93\H,17.82,10.9
 9,21.27\O,21.66,14.54,12.98\H,21.39,13.97,12.25\H,22.62,14.5,12.96\O,1
 2.03,23.45,24.38\H,11.52,22.81,24.87\H,12.92,23.34,24.7\O,14.66,26.43,
 15.08\H,15.12,26.57,15.91\H,14.94,25.56,14.8\O,25.31,27.23,17.99\H,25.
 44,28.16,18.14\H,24.87,27.19,17.14\O,22.25,23.14,28.81\H,21.8,22.31,28
 .71\H,22.74,23.05,29.63\O,20.75,29.19,16.3\H,21.21,28.55,16.85\H,19.84
 ,28.88,16.29\O,12.14,15.24,20.53\H,12.36,14.32,20.67\H,11.58,15.47,21.
 27\O,20.72,27.75,26.33\H,21.05,27.25,25.58\H,20.59,27.1,27.01\O,17.8,1
 1.77,16.5\H,17.48,12.23,15.72\H,18.36,11.08,16.15\O,10.62,19.14,20.2\H
 ,10.93,18.61,20.94\H,10.72,20.05,20.5\O,13.45,12.86,18.76\H,13.49,13.6
 9,18.29\H,14.36,12.68,18.99\O,21.09,10.38,22.75\H,21.05,11.31,22.96\H,
 20.92,9.94,23.59\O,13.45,26.23,22.84\H,13.35,25.81,23.69\H,14.3,26.68,
 22.88\O,15.,22.29,28.34\H,15.88,22.21,27.98\H,15.1,22.08,29.27\O,23.67
 ,24.15,12.48\H,23.56,23.89,11.56\H,24.51,23.77,12.74\O,14.22,17.56,27.
 82\H,13.7,16.87,28.24\H,14.71,17.11,27.14\\Version=ES64L-G09RevE.01\HF
 =-9773.4047207\RMSD=1.597e-09\RMSF=1.025e-02\Dipole=0.2408526,-2.72409
 02,-4.2453164\Quadrupole=-24.6951803,-4.4052349,29.1004152,-1420.1882,
 -1623.8111238,-1793.1963723\PG=C01 [X(Br1H256O128)]\\@


 HONESTY IN A LAWYER IS LIKE A HEN'S HIND LEGS.
  -- MAGNUS OLESON, LAKE WOBEGON PATRIARCH, C.1875
 Job cpu time:       6 days 17 hours  1 minutes 44.9 seconds.
 File lengths (MBytes):  RWF=   7285 Int=      0 D2E=      0 Chk=   2411 Scr=      1
 Normal termination of Gaussian 09 at Fri May  4 20:09:13 2018.
