 Entering Gaussian System, Link 0=/cm/shared/gaussian/g09.e01/intel64-sandybridge/g09/g09
 Initial command:
 /cm/shared/gaussian/g09.e01/intel64-sandybridge/g09/l1.exe "/local/scratch/m.peluso/128_wat/Gau-46335.inp" -scrdir="/local/scratch/m.peluso/128_wat/"
 Entering Link 1 = /cm/shared/gaussian/g09.e01/intel64-sandybridge/g09/l1.exe PID=     46336.
  
 Copyright (c) 1988,1990,1992,1993,1995,1998,2003,2009,2015,
            Gaussian, Inc.  All Rights Reserved.
  
 This is part of the Gaussian(R) 09 program.  It is based on
 the Gaussian(R) 03 system (copyright 2003, Gaussian, Inc.),
 the Gaussian(R) 98 system (copyright 1998, Gaussian, Inc.),
 the Gaussian(R) 94 system (copyright 1995, Gaussian, Inc.),
 the Gaussian 92(TM) system (copyright 1992, Gaussian, Inc.),
 the Gaussian 90(TM) system (copyright 1990, Gaussian, Inc.),
 the Gaussian 88(TM) system (copyright 1988, Gaussian, Inc.),
 the Gaussian 86(TM) system (copyright 1986, Carnegie Mellon
 University), and the Gaussian 82(TM) system (copyright 1983,
 Carnegie Mellon University). Gaussian is a federally registered
 trademark of Gaussian, Inc.
  
 This software contains proprietary and confidential information,
 including trade secrets, belonging to Gaussian, Inc.
  
 This software is provided under written license and may be
 used, copied, transmitted, or stored only in accord with that
 written license.
  
 The following legend is applicable only to US Government
 contracts under FAR:
  
                    RESTRICTED RIGHTS LEGEND
  
 Use, reproduction and disclosure by the US Government is
 subject to restrictions as set forth in subparagraphs (a)
 and (c) of the Commercial Computer Software - Restricted
 Rights clause in FAR 52.227-19.
  
 Gaussian, Inc.
 340 Quinnipiac St., Bldg. 40, Wallingford CT 06492
  
  
 ---------------------------------------------------------------
 Warning -- This program may not be used in any manner that
 competes with the business of Gaussian, Inc. or will provide
 assistance to any competitor of Gaussian, Inc.  The licensee
 of this program is prohibited from giving any competitor of
 Gaussian, Inc. access to this program.  By using this program,
 the user acknowledges that Gaussian, Inc. is engaged in the
 business of creating and licensing software in the field of
 computational chemistry and represents and warrants to the
 licensee that it is not a competitor of Gaussian, Inc. and that
 it will not use this program in any manner prohibited above.
 ---------------------------------------------------------------
  

 Cite this work as:
 Gaussian 09, Revision E.01,
 M. J. Frisch, G. W. Trucks, H. B. Schlegel, G. E. Scuseria, 
 M. A. Robb, J. R. Cheeseman, G. Scalmani, V. Barone, B. Mennucci, 
 G. A. Petersson, H. Nakatsuji, M. Caricato, X. Li, H. P. Hratchian, 
 A. F. Izmaylov, J. Bloino, G. Zheng, J. L. Sonnenberg, M. Hada, 
 M. Ehara, K. Toyota, R. Fukuda, J. Hasegawa, M. Ishida, T. Nakajima, 
 Y. Honda, O. Kitao, H. Nakai, T. Vreven, J. A. Montgomery, Jr., 
 J. E. Peralta, F. Ogliaro, M. Bearpark, J. J. Heyd, E. Brothers, 
 K. N. Kudin, V. N. Staroverov, T. Keith, R. Kobayashi, J. Normand, 
 K. Raghavachari, A. Rendell, J. C. Burant, S. S. Iyengar, J. Tomasi, 
 M. Cossi, N. Rega, J. M. Millam, M. Klene, J. E. Knox, J. B. Cross, 
 V. Bakken, C. Adamo, J. Jaramillo, R. Gomperts, R. E. Stratmann, 
 O. Yazyev, A. J. Austin, R. Cammi, C. Pomelli, J. W. Ochterski, 
 R. L. Martin, K. Morokuma, V. G. Zakrzewski, G. A. Voth, 
 P. Salvador, J. J. Dannenberg, S. Dapprich, A. D. Daniels, 
 O. Farkas, J. B. Foresman, J. V. Ortiz, J. Cioslowski, 
 and D. J. Fox, Gaussian, Inc., Wallingford CT, 2013.
 
 ******************************************
 Gaussian 09:  ES64L-G09RevE.01 30-Nov-2015
                15-May-2018 
 ******************************************
 %Mem=110GB
 %NProcShared=64
 Will use up to   64 processors via shared memory.
 %chk=snap33.chk
 ----------------------------------------------
 #p PBE1PBE/cc-pvDZ force Counterpoise=2 noSymm
 ----------------------------------------------
 1/10=7,30=1,38=1,62=2/1,3;
 2/12=2,15=1,17=6,18=5,40=1/2;
 1/10=7,30=1,38=1,53=2,62=2,63=101/22;
 3/5=16,11=2,16=1,25=1,30=1,71=1,74=-13/1,2,3;
 4//1;
 5/5=2,38=5/2;
 6/7=2,8=2,9=2,10=2,28=1/1;
 7/7=1,29=1,30=1,33=-1/1,2,3,16;
 1/10=7,30=1,53=2,62=2,63=101/22;
 3/5=7,6=11,11=2,16=1,25=1,30=1,71=1,74=-13,82=7/1,2,3;
 4//1;
 5/5=2,38=5/2;
 6/7=2,8=2,9=2,10=2,28=1/1;
 7/7=1,29=1,30=1,33=-1/1,2,3,16;
 1/10=7,30=1,53=2,62=2,63=101/22(-5);
 7/9=1,29=1,44=-1/16;
 1/10=7,30=1,62=2/3;
 99//99;
 Leave Link    1 at Tue May 15 10:16:47 2018, MaxMem= 14763950080 cpu:         6.1
 (Enter /cm/shared/gaussian/g09.e01/intel64-sandybridge/g09/l101.exe)
 ---------------------------------------
 forces on chloride comput - NWATER: 128
 ---------------------------------------
 Symbolic Z-matrix:
 Charge = -1 Multiplicity = 1 in supermolecule
 Charge = -1 Multiplicity = 1 in fragment      1.
 Charge =  0 Multiplicity = 1 in fragment      2.
 Br(Fragment=1)        20.       20.       20. 
 O(Fragment=2)         21.78     22.25     18.91 
 H(Fragment=2)         21.27     21.67     19.47 
 H(Fragment=2)         21.15     22.87     18.57 
 O(Fragment=2)         18.11     19.05     22.35 
 H(Fragment=2)         18.39     19.45     21.53 
 H(Fragment=2)         17.15     19.04     22.31 
 O(Fragment=2)         21.35     18.76     22.64 
 H(Fragment=2)         20.76     19.16     21.99 
 H(Fragment=2)         22.13     18.51     22.13 
 O(Fragment=2)         21.59     17.87     17.89 
 H(Fragment=2)         21.13     18.47     18.47 
 H(Fragment=2)         22.49     18.19     17.87 
 O(Fragment=2)         17.67     22.42     18.73 
 H(Fragment=2)         16.94     22.18     19.3 
 H(Fragment=2)         18.43     22.02     19.16 
 O(Fragment=2)         20.14     16.57     21.22 
 H(Fragment=2)         20.16     17.14     21.98 
 H(Fragment=2)         20.45     17.11     20.5 
 O(Fragment=2)         23.       21.29     22.13 
 H(Fragment=2)         23.51     20.51     21.91 
 H(Fragment=2)         22.25     21.26     21.54 
 O(Fragment=2)         17.74     17.97     17.35 
 H(Fragment=2)         18.46     18.26     17.91 
 H(Fragment=2)         18.09     17.22     16.87 
 O(Fragment=2)         23.21     20.7      17.05 
 H(Fragment=2)         22.89     21.25     16.34 
 H(Fragment=2)         22.88     21.12     17.85 
 O(Fragment=2)         17.66     21.81     24.15 
 H(Fragment=2)         17.88     21.33     23.35 
 H(Fragment=2)         17.26     21.14     24.71 
 O(Fragment=2)         23.49     17.9      21.21 
 H(Fragment=2)         24.02     17.54     21.91 
 H(Fragment=2)         23.97     17.68     20.41 
 O(Fragment=2)         18.64     18.07     24.88 
 H(Fragment=2)         18.88     18.45     24.03 
 H(Fragment=2)         17.9      18.59     25.18 
 O(Fragment=2)         22.03     22.16     24.44 
 H(Fragment=2)         22.1      21.74     23.58 
 H(Fragment=2)         22.2      23.09     24.26 
 O(Fragment=2)         19.47     24.36     17.72 
 H(Fragment=2)         18.72     23.79     17.9 
 H(Fragment=2)         19.68     24.75     18.57 
 O(Fragment=2)         15.02     18.03     19.73 
 H(Fragment=2)         15.63     18.63     19.3 
 H(Fragment=2)         15.54     17.59     20.4 
 O(Fragment=2)         24.05     23.92     18.58 
 H(Fragment=2)         23.38     23.25     18.7 
 H(Fragment=2)         24.82     23.57     19.01 
 O(Fragment=2)         15.37     19.39     17.05 
 H(Fragment=2)         16.17     18.89     17.2 
 H(Fragment=2)         15.68     20.26     16.78 
 O(Fragment=2)         21.99     15.46     16.74 
 H(Fragment=2)         21.65     16.28     17.1 
 H(Fragment=2)         21.59     14.78     17.28 
 O(Fragment=2)         21.46     17.49     24.98 
 H(Fragment=2)         21.7      18.16     24.34 
 H(Fragment=2)         20.5      17.49     24.98 
 O(Fragment=2)         15.7      22.86     20.87 
 H(Fragment=2)         15.59     22.05     21.36 
 H(Fragment=2)         15.1      23.48     21.28 
 O(Fragment=2)         17.27     15.12     18.56 
 H(Fragment=2)         17.11     16.07     18.54 
 H(Fragment=2)         16.7      14.77     17.88 
 O(Fragment=2)         16.14     21.93     16.29 
 H(Fragment=2)         16.6      22.34     15.56 
 H(Fragment=2)         16.46     22.39     17.06 
 O(Fragment=2)         19.3      16.07     16.43 
 H(Fragment=2)         19.29     15.17     16.76 
 H(Fragment=2)         20.23     16.29     16.38 
 O(Fragment=2)         20.63     21.16     14.6 
 H(Fragment=2)         20.4      20.5      13.93 
 H(Fragment=2)         19.79     21.5      14.89 
 O(Fragment=2)         18.21     19.52     14.5 
 H(Fragment=2)         17.88     18.96     15.2 
 H(Fragment=2)         18.01     20.41     14.8 
 O(Fragment=2)         18.36     14.26     21.11 
 H(Fragment=2)         18.26     14.57     20.21 
 H(Fragment=2)         18.63     15.04     21.6 
 O(Fragment=2)         15.35     20.05     22.77 
 H(Fragment=2)         15.4      20.92     23.18 
 H(Fragment=2)         15.19     19.45     23.5 
 O(Fragment=2)         15.94     16.86     21.77 
 H(Fragment=2)         16.29     15.97     21.87 
 H(Fragment=2)         15.78     17.15     22.67 
 O(Fragment=2)         25.51     21.74     20.75 
 H(Fragment=2)         24.83     22.22     21.23 
 H(Fragment=2)         25.72     21.       21.32 
 O(Fragment=2)         21.35     13.93     21.23 
 H(Fragment=2)         21.17     14.84     21.48 
 H(Fragment=2)         20.63     13.43     21.6 
 O(Fragment=2)         24.27     18.61     15.62 
 H(Fragment=2)         23.81     19.32     16.06 
 H(Fragment=2)         24.98     19.04     15.14 
 O(Fragment=2)         19.75     25.82     20.01 
 H(Fragment=2)         19.39     25.5      20.84 
 H(Fragment=2)         19.97     26.74     20.19 
 O(Fragment=2)         22.5      22.93     15.44 
 H(Fragment=2)         21.77     22.38     15.16 
 H(Fragment=2)         22.11     23.81     15.51 
 O(Fragment=2)         19.       15.48     24.19 
 H(Fragment=2)         18.93     16.39     24.47 
 H(Fragment=2)         18.76     14.97     24.96 
 O(Fragment=2)         24.33     16.5      17.33 
 H(Fragment=2)         24.34     17.19     16.67 
 H(Fragment=2)         23.53     16.02     17.16 
 O(Fragment=2)         19.52     21.89     26.31 
 H(Fragment=2)         20.32     21.64     25.85 
 H(Fragment=2)         18.84     21.89     25.64 
 O(Fragment=2)         15.96     25.21     18.59 
 H(Fragment=2)         15.13     25.66     18.78 
 H(Fragment=2)         16.25     24.87     19.44 
 O(Fragment=2)         18.33     22.84     14.78 
 H(Fragment=2)         17.78     23.43     15.28 
 H(Fragment=2)         18.78     23.4      14.15 
 O(Fragment=2)         17.92     24.53     24.55 
 H(Fragment=2)         17.71     23.6      24.55 
 H(Fragment=2)         17.11     24.96     24.26 
 O(Fragment=2)         22.44     25.36     23. 
 H(Fragment=2)         21.5      25.44     22.82 
 H(Fragment=2)         22.85     25.99     22.41 
 O(Fragment=2)         20.98     13.65     18.7 
 H(Fragment=2)         20.45     12.85     18.67 
 H(Fragment=2)         21.17     13.78     19.62 
 O(Fragment=2)         13.85     21.57     18.24 
 H(Fragment=2)         14.42     22.11     17.7 
 H(Fragment=2)         14.01     20.67     17.94 
 O(Fragment=2)         19.88     25.77     22.95 
 H(Fragment=2)         19.81     26.68     23.23 
 H(Fragment=2)         19.29     25.3      23.54 
 O(Fragment=2)         25.51     16.62     19.74 
 H(Fragment=2)         24.99     15.81     19.78 
 H(Fragment=2)         25.49     16.88     18.82 
 O(Fragment=2)         12.99     19.4      21.42 
 H(Fragment=2)         13.8      19.83     21.71 
 H(Fragment=2)         13.29     18.74     20.79 
 O(Fragment=2)         15.74     17.55     24.29 
 H(Fragment=2)         14.87     17.26     24.58 
 H(Fragment=2)         16.31     17.36     25.04 
 O(Fragment=2)         26.66     20.6      16.85 
 H(Fragment=2)         25.79     20.95     17.03 
 H(Fragment=2)         27.25     21.14     17.37 
 O(Fragment=2)         24.6      16.13     22.79 
 H(Fragment=2)         24.22     15.63     23.52 
 H(Fragment=2)         24.59     15.52     22.05 
 O(Fragment=2)         24.06     14.27     21. 
 H(Fragment=2)         24.16     13.43     20.57 
 H(Fragment=2)         23.18     14.24     21.39 
 O(Fragment=2)         18.15     27.26     17.82 
 H(Fragment=2)         18.7      27.53     17.09 
 H(Fragment=2)         18.61     26.5      18.2 
 O(Fragment=2)         27.15     17.68     21.56 
 H(Fragment=2)         26.34     17.49     21.08 
 H(Fragment=2)         27.46     16.82     21.86 
 O(Fragment=2)         25.36     23.62     22.82 
 H(Fragment=2)         25.76     24.33     22.31 
 H(Fragment=2)         24.61     24.02     23.25 
 O(Fragment=2)         16.4      20.18     25.92 
 H(Fragment=2)         16.9      20.25     26.73 
 H(Fragment=2)         15.5      20.04     26.2 
 O(Fragment=2)         23.78     21.1      26.62 
 H(Fragment=2)         24.36     21.24     25.87 
 H(Fragment=2)         22.91     21.05     26.24 
 O(Fragment=2)         27.43     22.26     18.84 
 H(Fragment=2)         26.74     21.97     19.44 
 H(Fragment=2)         28.21     22.32     19.39 
 O(Fragment=2)         22.77     14.74     24.38 
 H(Fragment=2)         22.18     15.34     24.84 
 H(Fragment=2)         22.19     14.04     24.06 
 O(Fragment=2)         12.79     16.44     19.88 
 H(Fragment=2)         13.62     16.88     19.66 
 H(Fragment=2)         12.95     15.51     19.69 
 O(Fragment=2)         13.57     16.84     16.48 
 H(Fragment=2)         12.8      17.19     16.04 
 H(Fragment=2)         14.05     17.61     16.78 
 O(Fragment=2)         19.19     17.4      12.59 
 H(Fragment=2)         18.68     16.69     12.97 
 H(Fragment=2)         18.97     18.17     13.11 
 O(Fragment=2)         15.29     24.91     15.8 
 H(Fragment=2)         14.52     25.43     16.04 
 H(Fragment=2)         15.76     24.78     16.63 
 O(Fragment=2)         23.97     16.21     14.25 
 H(Fragment=2)         23.44     16.32     13.46 
 H(Fragment=2)         23.94     17.06     14.68 
 O(Fragment=2)         22.09     17.9      27.51 
 H(Fragment=2)         23.04     18.05     27.54 
 H(Fragment=2)         21.92     17.63     26.61 
 O(Fragment=2)         23.82     26.53     17.26 
 H(Fragment=2)         23.85     26.51     16.31 
 H(Fragment=2)         23.94     25.61     17.52 
 O(Fragment=2)         18.67     13.36     16.63 
 H(Fragment=2)         19.31     12.67     16.79 
 H(Fragment=2)         18.16     13.4      17.44 
 O(Fragment=2)         25.93     17.5      25. 
 H(Fragment=2)         26.85     17.64     24.76 
 H(Fragment=2)         25.47     17.44     24.17 
 O(Fragment=2)         25.76     21.84     24.55 
 H(Fragment=2)         25.89     22.55     23.92 
 H(Fragment=2)         26.02     21.05     24.08 
 O(Fragment=2)         26.94     19.99     22.74 
 H(Fragment=2)         27.87     20.21     22.77 
 H(Fragment=2)         26.91     19.12     22.36 
 O(Fragment=2)         25.1      22.44     14.16 
 H(Fragment=2)         24.21     22.58     14.49 
 H(Fragment=2)         25.12     21.52     13.91 
 O(Fragment=2)         14.39     21.94     24.66 
 H(Fragment=2)         14.2      21.23     25.27 
 H(Fragment=2)         14.9      22.57     25.17 
 O(Fragment=2)         21.66     13.37     15.07 
 H(Fragment=2)         22.38     13.15     14.49 
 H(Fragment=2)         21.87     14.24     15.41 
 O(Fragment=2)         16.31     12.43     20.37 
 H(Fragment=2)         16.63     11.8      19.72 
 H(Fragment=2)         17.06     12.99     20.56 
 O(Fragment=2)         19.2      11.88     22.39 
 H(Fragment=2)         18.96     12.72     22.01 
 H(Fragment=2)         18.72     11.84     23.22 
 O(Fragment=2)         13.06     22.83     22.54 
 H(Fragment=2)         12.69     23.67     22.8 
 H(Fragment=2)         13.6      22.57     23.28 
 O(Fragment=2)         12.3      23.17     19.8 
 H(Fragment=2)         12.94     22.8      19.19 
 H(Fragment=2)         12.58     22.87     20.66 
 O(Fragment=2)         15.17     18.08     13.88 
 H(Fragment=2)         14.59     17.51     14.38 
 H(Fragment=2)         14.98     18.96     14.21 
 O(Fragment=2)         17.03     15.94     13.65 
 H(Fragment=2)         16.5      16.69     13.92 
 H(Fragment=2)         16.47     15.47     13.03 
 O(Fragment=2)         14.97     14.63     16.75 
 H(Fragment=2)         14.51     15.47     16.74 
 H(Fragment=2)         14.42     14.05     16.22 
 O(Fragment=2)         24.22     23.84     25.52 
 H(Fragment=2)         24.9      23.21     25.28 
 H(Fragment=2)         23.64     23.35     26.11 
 O(Fragment=2)         17.52     27.59     20.81 
 H(Fragment=2)         17.       27.27     20.07 
 H(Fragment=2)         18.27     28.02     20.41 
 O(Fragment=2)         21.95     17.32     12.6 
 H(Fragment=2)         20.99     17.32     12.67 
 H(Fragment=2)         22.15     18.1      12.09 
 O(Fragment=2)         27.4      17.9      16.14 
 H(Fragment=2)         28.33     18.11     16.09 
 H(Fragment=2)         27.04     18.54     16.76 
 O(Fragment=2)         14.61     26.14     21.52 
 H(Fragment=2)         14.34     27.05     21.65 
 H(Fragment=2)         15.36     26.02     22.11 
 O(Fragment=2)         21.1      25.62     14.07 
 H(Fragment=2)         20.19     25.87     14.19 
 H(Fragment=2)         21.06     24.72     13.75 
 O(Fragment=2)         11.55     20.15     19.22 
 H(Fragment=2)         12.13     20.7      18.69 
 H(Fragment=2)         11.95     20.15     20.09 
 O(Fragment=2)         19.41     20.94     11.72 
 H(Fragment=2)         18.78     20.3      12.04 
 H(Fragment=2)         18.88     21.64     11.33 
 O(Fragment=2)         16.7      26.66     23.12 
 H(Fragment=2)         16.78     27.05     22.26 
 H(Fragment=2)         16.9      27.37     23.73 
 O(Fragment=2)         19.89     22.22     28.82 
 H(Fragment=2)         19.89     22.32     27.87 
 H(Fragment=2)         20.67     21.7      29.01 
 O(Fragment=2)         17.       19.51     11.69 
 H(Fragment=2)         16.59     19.31     12.54 
 H(Fragment=2)         16.38     20.09     11.25 
 O(Fragment=2)         20.56     23.34     12.49 
 H(Fragment=2)         21.39     23.61     12.1 
 H(Fragment=2)         20.37     22.49     12.08 
 O(Fragment=2)         26.89     14.68     17.03 
 H(Fragment=2)         26.01     15.06     17.14 
 H(Fragment=2)         26.8      13.78     17.32 
 O(Fragment=2)         23.61     27.3      21.62 
 H(Fragment=2)         24.56     27.39     21.54 
 H(Fragment=2)         23.26     28.       21.06 
 O(Fragment=2)         13.61     20.8      14.7 
 H(Fragment=2)         12.89     20.21     14.48 
 H(Fragment=2)         13.21     21.67     14.76 
 O(Fragment=2)         17.7      24.39     27.87 
 H(Fragment=2)         17.77     24.21     26.94 
 H(Fragment=2)         18.37     25.06     28.04 
 O(Fragment=2)         16.34     16.55     26.8 
 H(Fragment=2)         16.8      17.22     27.29 
 H(Fragment=2)         15.45     16.55     27.17 
 O(Fragment=2)         20.41     27.98     15.99 
 H(Fragment=2)         20.55     27.18     15.49 
 H(Fragment=2)         21.28     28.23     16.29 
 O(Fragment=2)         26.41     24.64     15.43 
 H(Fragment=2)         26.51     24.29     16.31 
 H(Fragment=2)         25.61     24.22     15.1 
 O(Fragment=2)         14.03     13.41     19.39 
 H(Fragment=2)         14.29     13.72     18.52 
 H(Fragment=2)         14.79     12.92     19.7 
 O(Fragment=2)         26.44     19.72     14.19 
 H(Fragment=2)         26.62     18.87     14.59 
 H(Fragment=2)         26.92     20.34     14.75 
 O(Fragment=2)         11.57     20.24     23.58 
 H(Fragment=2)         12.36     20.63     23.96 
 H(Fragment=2)         11.78     20.12     22.65 
 O(Fragment=2)         13.14     25.76     19.31 
 H(Fragment=2)         12.77     24.89     19.42 
 H(Fragment=2)         13.69     25.89     20.08 
 O(Fragment=2)         17.73     20.54     28.32 
 H(Fragment=2)         17.26     20.41     29.15 
 H(Fragment=2)         18.38     21.21     28.52 
 O(Fragment=2)         23.48     26.35     26.13 
 H(Fragment=2)         22.59     26.31     26.49 
 H(Fragment=2)         23.61     25.51     25.7 
 O(Fragment=2)         22.27     28.8      17.99 
 H(Fragment=2)         21.43     28.57     18.4 
 H(Fragment=2)         22.83     28.04     18.15 
 O(Fragment=2)         20.23     28.72     19.95 
 H(Fragment=2)         20.64     29.03     20.75 
 H(Fragment=2)         19.72     29.47     19.64 
 O(Fragment=2)         21.47     19.99     29.31 
 H(Fragment=2)         20.94     19.5      29.95 
 H(Fragment=2)         21.56     19.39     28.57 
 O(Fragment=2)         24.95     17.98     27.52 
 H(Fragment=2)         25.41     18.82     27.48 
 H(Fragment=2)         25.11     17.59     26.66 
 O(Fragment=2)         18.91     13.57     13.37 
 H(Fragment=2)         19.19     13.45     14.28 
 H(Fragment=2)         18.29     14.29     13.39 
 O(Fragment=2)         18.45     25.6      13.47 
 H(Fragment=2)         18.4      25.67     12.51 
 H(Fragment=2)         17.76     26.17     13.79 
 O(Fragment=2)         23.45     11.78     19.73 
 H(Fragment=2)         23.62     11.09     20.37 
 H(Fragment=2)         22.54     11.65     19.47 
 O(Fragment=2)         12.91     17.35     24.42 
 H(Fragment=2)         12.51     16.64     23.9 
 H(Fragment=2)         12.16     17.77     24.84 
 O(Fragment=2)         15.02     24.27     25.86 
 H(Fragment=2)         15.35     25.16     25.75 
 H(Fragment=2)         14.07     24.35     25.75 
 O(Fragment=2)         15.65     28.45     18.14 
 H(Fragment=2)         15.78     28.85     17.28 
 H(Fragment=2)         16.43     27.91     18.26 
 O(Fragment=2)         16.36     26.89     14.32 
 H(Fragment=2)         16.22     26.29     15.05 
 H(Fragment=2)         15.59     26.78     13.76 
 O(Fragment=2)         18.98     27.13     25.59 
 H(Fragment=2)         19.5      26.71     26.27 
 H(Fragment=2)         18.16     26.64     25.56 
 O(Fragment=2)         22.       20.08     11.13 
 H(Fragment=2)         21.12     20.46     11.16 
 H(Fragment=2)         22.52     20.74     10.67 
 O(Fragment=2)         14.06     13.45     22.61 
 H(Fragment=2)         13.52     14.24     22.5 
 H(Fragment=2)         14.37     13.25     21.73 
 O(Fragment=2)         18.86     14.18     26.74 
 H(Fragment=2)         18.17     14.49     27.32 
 H(Fragment=2)         19.49     13.76     27.32 
 O(Fragment=2)         13.65     19.93     26.36 
 H(Fragment=2)         13.39     19.       26.37 
 H(Fragment=2)         12.95     20.37     26.84 
 O(Fragment=2)         23.74     26.63     14.52 
 H(Fragment=2)         23.83     27.34     13.89 
 H(Fragment=2)         23.15     26.01     14.09 
 O(Fragment=2)         19.18     16.53     29.12 
 H(Fragment=2)         19.78     16.98     28.51 
 H(Fragment=2)         19.26     17.02     29.94 
 O(Fragment=2)         24.23     13.95     26.74 
 H(Fragment=2)         23.76     13.12     26.69 
 H(Fragment=2)         23.87     14.48     26.03 
 O(Fragment=2)         11.87     15.65     22.5 
 H(Fragment=2)         10.92     15.61     22.63 
 H(Fragment=2)         11.98     16.07     21.64 
 O(Fragment=2)         26.57     16.34     13.4 
 H(Fragment=2)         25.81     16.4      13.97 
 H(Fragment=2)         26.68     15.4      13.23 
 O(Fragment=2)         19.82     11.12     17.91 
 H(Fragment=2)         20.22     10.51     17.28 
 H(Fragment=2)         19.5      10.56     18.61 
 O(Fragment=2)         29.81     17.73     20.56 
 H(Fragment=2)         28.93     18.11     20.55 
 H(Fragment=2)         29.71     16.9      20.1 
 O(Fragment=2)         20.66     25.97     27.46 
 H(Fragment=2)         21.29     25.24     27.45 
 H(Fragment=2)         20.76     26.37     28.32 
 O(Fragment=2)         18.51     23.35     10.65 
 H(Fragment=2)         18.92     23.45     11.51 
 H(Fragment=2)         19.23     23.47     10.03 
 O(Fragment=2)         18.08     12.05     24.87 
 H(Fragment=2)         17.15     12.28     24.93 
 H(Fragment=2)         18.52     12.68     25.44 
 
 NAtoms=    385 NQM=      385 NQMF=       0 NMMI=      0 NMMIF=      0
                NMic=       0 NMicF=      0.
                    Isotopes and Nuclear Properties:
 (Nuclear quadrupole moments (NQMom) in fm**2, nuclear magnetic moments (NMagM)
  in nuclear magnetons)

  Atom         1           2           3           4           5           6           7           8           9          10
 IAtWgt=          79          16           1           1          16           1           1          16           1           1
 AtmWgt=  78.9183361  15.9949146   1.0078250   1.0078250  15.9949146   1.0078250   1.0078250  15.9949146   1.0078250   1.0078250
 NucSpn=           3           0           1           1           0           1           1           0           1           1
 AtZEff=   0.0000000   0.0000000   0.0000000   0.0000000   0.0000000   0.0000000   0.0000000   0.0000000   0.0000000   0.0000000
 NQMom=   31.3000000   0.0000000   0.0000000   0.0000000   0.0000000   0.0000000   0.0000000   0.0000000   0.0000000   0.0000000
 NMagM=    2.1063990   0.0000000   2.7928460   2.7928460   0.0000000   2.7928460   2.7928460   0.0000000   2.7928460   2.7928460
 AtZNuc=  35.0000000   8.0000000   1.0000000   1.0000000   8.0000000   1.0000000   1.0000000   8.0000000   1.0000000   1.0000000

  Atom        11          12          13          14          15          16          17          18          19          20
 IAtWgt=          16           1           1          16           1           1          16           1           1          16
 AtmWgt=  15.9949146   1.0078250   1.0078250  15.9949146   1.0078250   1.0078250  15.9949146   1.0078250   1.0078250  15.9949146
 NucSpn=           0           1           1           0           1           1           0           1           1           0
 AtZEff=   0.0000000   0.0000000   0.0000000   0.0000000   0.0000000   0.0000000   0.0000000   0.0000000   0.0000000   0.0000000
 NQMom=    0.0000000   0.0000000   0.0000000   0.0000000   0.0000000   0.0000000   0.0000000   0.0000000   0.0000000   0.0000000
 NMagM=    0.0000000   2.7928460   2.7928460   0.0000000   2.7928460   2.7928460   0.0000000   2.7928460   2.7928460   0.0000000
 AtZNuc=   8.0000000   1.0000000   1.0000000   8.0000000   1.0000000   1.0000000   8.0000000   1.0000000   1.0000000   8.0000000

  Atom        21          22          23          24          25          26          27          28          29          30
 IAtWgt=           1           1          16           1           1          16           1           1          16           1
 AtmWgt=   1.0078250   1.0078250  15.9949146   1.0078250   1.0078250  15.9949146   1.0078250   1.0078250  15.9949146   1.0078250
 NucSpn=           1           1           0           1           1           0           1           1           0           1
 AtZEff=   0.0000000   0.0000000   0.0000000   0.0000000   0.0000000   0.0000000   0.0000000   0.0000000   0.0000000   0.0000000
 NQMom=    0.0000000   0.0000000   0.0000000   0.0000000   0.0000000   0.0000000   0.0000000   0.0000000   0.0000000   0.0000000
 NMagM=    2.7928460   2.7928460   0.0000000   2.7928460   2.7928460   0.0000000   2.7928460   2.7928460   0.0000000   2.7928460
 AtZNuc=   1.0000000   1.0000000   8.0000000   1.0000000   1.0000000   8.0000000   1.0000000   1.0000000   8.0000000   1.0000000

  Atom        31          32          33          34          35          36          37          38          39          40
 IAtWgt=           1          16           1           1          16           1           1          16           1           1
 AtmWgt=   1.0078250  15.9949146   1.0078250   1.0078250  15.9949146   1.0078250   1.0078250  15.9949146   1.0078250   1.0078250
 NucSpn=           1           0           1           1           0           1           1           0           1           1
 AtZEff=   0.0000000   0.0000000   0.0000000   0.0000000   0.0000000   0.0000000   0.0000000   0.0000000   0.0000000   0.0000000
 NQMom=    0.0000000   0.0000000   0.0000000   0.0000000   0.0000000   0.0000000   0.0000000   0.0000000   0.0000000   0.0000000
 NMagM=    2.7928460   0.0000000   2.7928460   2.7928460   0.0000000   2.7928460   2.7928460   0.0000000   2.7928460   2.7928460
 AtZNuc=   1.0000000   8.0000000   1.0000000   1.0000000   8.0000000   1.0000000   1.0000000   8.0000000   1.0000000   1.0000000

  Atom        41          42          43          44          45          46          47          48          49          50
 IAtWgt=          16           1           1          16           1           1          16           1           1          16
 AtmWgt=  15.9949146   1.0078250   1.0078250  15.9949146   1.0078250   1.0078250  15.9949146   1.0078250   1.0078250  15.9949146
 NucSpn=           0           1           1           0           1           1           0           1           1           0
 AtZEff=   0.0000000   0.0000000   0.0000000   0.0000000   0.0000000   0.0000000   0.0000000   0.0000000   0.0000000   0.0000000
 NQMom=    0.0000000   0.0000000   0.0000000   0.0000000   0.0000000   0.0000000   0.0000000   0.0000000   0.0000000   0.0000000
 NMagM=    0.0000000   2.7928460   2.7928460   0.0000000   2.7928460   2.7928460   0.0000000   2.7928460   2.7928460   0.0000000
 AtZNuc=   8.0000000   1.0000000   1.0000000   8.0000000   1.0000000   1.0000000   8.0000000   1.0000000   1.0000000   8.0000000

  Atom        51          52          53          54          55          56          57          58          59          60
 IAtWgt=           1           1          16           1           1          16           1           1          16           1
 AtmWgt=   1.0078250   1.0078250  15.9949146   1.0078250   1.0078250  15.9949146   1.0078250   1.0078250  15.9949146   1.0078250
 NucSpn=           1           1           0           1           1           0           1           1           0           1
 AtZEff=   0.0000000   0.0000000   0.0000000   0.0000000   0.0000000   0.0000000   0.0000000   0.0000000   0.0000000   0.0000000
 NQMom=    0.0000000   0.0000000   0.0000000   0.0000000   0.0000000   0.0000000   0.0000000   0.0000000   0.0000000   0.0000000
 NMagM=    2.7928460   2.7928460   0.0000000   2.7928460   2.7928460   0.0000000   2.7928460   2.7928460   0.0000000   2.7928460
 AtZNuc=   1.0000000   1.0000000   8.0000000   1.0000000   1.0000000   8.0000000   1.0000000   1.0000000   8.0000000   1.0000000

  Atom        61          62          63          64          65          66          67          68          69          70
 IAtWgt=           1          16           1           1          16           1           1          16           1           1
 AtmWgt=   1.0078250  15.9949146   1.0078250   1.0078250  15.9949146   1.0078250   1.0078250  15.9949146   1.0078250   1.0078250
 NucSpn=           1           0           1           1           0           1           1           0           1           1
 AtZEff=   0.0000000   0.0000000   0.0000000   0.0000000   0.0000000   0.0000000   0.0000000   0.0000000   0.0000000   0.0000000
 NQMom=    0.0000000   0.0000000   0.0000000   0.0000000   0.0000000   0.0000000   0.0000000   0.0000000   0.0000000   0.0000000
 NMagM=    2.7928460   0.0000000   2.7928460   2.7928460   0.0000000   2.7928460   2.7928460   0.0000000   2.7928460   2.7928460
 AtZNuc=   1.0000000   8.0000000   1.0000000   1.0000000   8.0000000   1.0000000   1.0000000   8.0000000   1.0000000   1.0000000

  Atom        71          72          73          74          75          76          77          78          79          80
 IAtWgt=          16           1           1          16           1           1          16           1           1          16
 AtmWgt=  15.9949146   1.0078250   1.0078250  15.9949146   1.0078250   1.0078250  15.9949146   1.0078250   1.0078250  15.9949146
 NucSpn=           0           1           1           0           1           1           0           1           1           0
 AtZEff=   0.0000000   0.0000000   0.0000000   0.0000000   0.0000000   0.0000000   0.0000000   0.0000000   0.0000000   0.0000000
 NQMom=    0.0000000   0.0000000   0.0000000   0.0000000   0.0000000   0.0000000   0.0000000   0.0000000   0.0000000   0.0000000
 NMagM=    0.0000000   2.7928460   2.7928460   0.0000000   2.7928460   2.7928460   0.0000000   2.7928460   2.7928460   0.0000000
 AtZNuc=   8.0000000   1.0000000   1.0000000   8.0000000   1.0000000   1.0000000   8.0000000   1.0000000   1.0000000   8.0000000

  Atom        81          82          83          84          85          86          87          88          89          90
 IAtWgt=           1           1          16           1           1          16           1           1          16           1
 AtmWgt=   1.0078250   1.0078250  15.9949146   1.0078250   1.0078250  15.9949146   1.0078250   1.0078250  15.9949146   1.0078250
 NucSpn=           1           1           0           1           1           0           1           1           0           1
 AtZEff=   0.0000000   0.0000000   0.0000000   0.0000000   0.0000000   0.0000000   0.0000000   0.0000000   0.0000000   0.0000000
 NQMom=    0.0000000   0.0000000   0.0000000   0.0000000   0.0000000   0.0000000   0.0000000   0.0000000   0.0000000   0.0000000
 NMagM=    2.7928460   2.7928460   0.0000000   2.7928460   2.7928460   0.0000000   2.7928460   2.7928460   0.0000000   2.7928460
 AtZNuc=   1.0000000   1.0000000   8.0000000   1.0000000   1.0000000   8.0000000   1.0000000   1.0000000   8.0000000   1.0000000

  Atom        91          92          93          94          95          96          97          98          99         100
 IAtWgt=           1          16           1           1          16           1           1          16           1           1
 AtmWgt=   1.0078250  15.9949146   1.0078250   1.0078250  15.9949146   1.0078250   1.0078250  15.9949146   1.0078250   1.0078250
 NucSpn=           1           0           1           1           0           1           1           0           1           1
 AtZEff=   0.0000000   0.0000000   0.0000000   0.0000000   0.0000000   0.0000000   0.0000000   0.0000000   0.0000000   0.0000000
 NQMom=    0.0000000   0.0000000   0.0000000   0.0000000   0.0000000   0.0000000   0.0000000   0.0000000   0.0000000   0.0000000
 NMagM=    2.7928460   0.0000000   2.7928460   2.7928460   0.0000000   2.7928460   2.7928460   0.0000000   2.7928460   2.7928460
 AtZNuc=   1.0000000   8.0000000   1.0000000   1.0000000   8.0000000   1.0000000   1.0000000   8.0000000   1.0000000   1.0000000

  Atom       101         102         103         104         105         106         107         108         109         110
 IAtWgt=          16           1           1          16           1           1          16           1           1          16
 AtmWgt=  15.9949146   1.0078250   1.0078250  15.9949146   1.0078250   1.0078250  15.9949146   1.0078250   1.0078250  15.9949146
 NucSpn=           0           1           1           0           1           1           0           1           1           0
 AtZEff=   0.0000000   0.0000000   0.0000000   0.0000000   0.0000000   0.0000000   0.0000000   0.0000000   0.0000000   0.0000000
 NQMom=    0.0000000   0.0000000   0.0000000   0.0000000   0.0000000   0.0000000   0.0000000   0.0000000   0.0000000   0.0000000
 NMagM=    0.0000000   2.7928460   2.7928460   0.0000000   2.7928460   2.7928460   0.0000000   2.7928460   2.7928460   0.0000000
 AtZNuc=   8.0000000   1.0000000   1.0000000   8.0000000   1.0000000   1.0000000   8.0000000   1.0000000   1.0000000   8.0000000

  Atom       111         112         113         114         115         116         117         118         119         120
 IAtWgt=           1           1          16           1           1          16           1           1          16           1
 AtmWgt=   1.0078250   1.0078250  15.9949146   1.0078250   1.0078250  15.9949146   1.0078250   1.0078250  15.9949146   1.0078250
 NucSpn=           1           1           0           1           1           0           1           1           0           1
 AtZEff=   0.0000000   0.0000000   0.0000000   0.0000000   0.0000000   0.0000000   0.0000000   0.0000000   0.0000000   0.0000000
 NQMom=    0.0000000   0.0000000   0.0000000   0.0000000   0.0000000   0.0000000   0.0000000   0.0000000   0.0000000   0.0000000
 NMagM=    2.7928460   2.7928460   0.0000000   2.7928460   2.7928460   0.0000000   2.7928460   2.7928460   0.0000000   2.7928460
 AtZNuc=   1.0000000   1.0000000   8.0000000   1.0000000   1.0000000   8.0000000   1.0000000   1.0000000   8.0000000   1.0000000

  Atom       121         122         123         124         125         126         127         128         129         130
 IAtWgt=           1          16           1           1          16           1           1          16           1           1
 AtmWgt=   1.0078250  15.9949146   1.0078250   1.0078250  15.9949146   1.0078250   1.0078250  15.9949146   1.0078250   1.0078250
 NucSpn=           1           0           1           1           0           1           1           0           1           1
 AtZEff=   0.0000000   0.0000000   0.0000000   0.0000000   0.0000000   0.0000000   0.0000000   0.0000000   0.0000000   0.0000000
 NQMom=    0.0000000   0.0000000   0.0000000   0.0000000   0.0000000   0.0000000   0.0000000   0.0000000   0.0000000   0.0000000
 NMagM=    2.7928460   0.0000000   2.7928460   2.7928460   0.0000000   2.7928460   2.7928460   0.0000000   2.7928460   2.7928460
 AtZNuc=   1.0000000   8.0000000   1.0000000   1.0000000   8.0000000   1.0000000   1.0000000   8.0000000   1.0000000   1.0000000

  Atom       131         132         133         134         135         136         137         138         139         140
 IAtWgt=          16           1           1          16           1           1          16           1           1          16
 AtmWgt=  15.9949146   1.0078250   1.0078250  15.9949146   1.0078250   1.0078250  15.9949146   1.0078250   1.0078250  15.9949146
 NucSpn=           0           1           1           0           1           1           0           1           1           0
 AtZEff=   0.0000000   0.0000000   0.0000000   0.0000000   0.0000000   0.0000000   0.0000000   0.0000000   0.0000000   0.0000000
 NQMom=    0.0000000   0.0000000   0.0000000   0.0000000   0.0000000   0.0000000   0.0000000   0.0000000   0.0000000   0.0000000
 NMagM=    0.0000000   2.7928460   2.7928460   0.0000000   2.7928460   2.7928460   0.0000000   2.7928460   2.7928460   0.0000000
 AtZNuc=   8.0000000   1.0000000   1.0000000   8.0000000   1.0000000   1.0000000   8.0000000   1.0000000   1.0000000   8.0000000

  Atom       141         142         143         144         145         146         147         148         149         150
 IAtWgt=           1           1          16           1           1          16           1           1          16           1
 AtmWgt=   1.0078250   1.0078250  15.9949146   1.0078250   1.0078250  15.9949146   1.0078250   1.0078250  15.9949146   1.0078250
 NucSpn=           1           1           0           1           1           0           1           1           0           1
 AtZEff=   0.0000000   0.0000000   0.0000000   0.0000000   0.0000000   0.0000000   0.0000000   0.0000000   0.0000000   0.0000000
 NQMom=    0.0000000   0.0000000   0.0000000   0.0000000   0.0000000   0.0000000   0.0000000   0.0000000   0.0000000   0.0000000
 NMagM=    2.7928460   2.7928460   0.0000000   2.7928460   2.7928460   0.0000000   2.7928460   2.7928460   0.0000000   2.7928460
 AtZNuc=   1.0000000   1.0000000   8.0000000   1.0000000   1.0000000   8.0000000   1.0000000   1.0000000   8.0000000   1.0000000

  Atom       151         152         153         154         155         156         157         158         159         160
 IAtWgt=           1          16           1           1          16           1           1          16           1           1
 AtmWgt=   1.0078250  15.9949146   1.0078250   1.0078250  15.9949146   1.0078250   1.0078250  15.9949146   1.0078250   1.0078250
 NucSpn=           1           0           1           1           0           1           1           0           1           1
 AtZEff=   0.0000000   0.0000000   0.0000000   0.0000000   0.0000000   0.0000000   0.0000000   0.0000000   0.0000000   0.0000000
 NQMom=    0.0000000   0.0000000   0.0000000   0.0000000   0.0000000   0.0000000   0.0000000   0.0000000   0.0000000   0.0000000
 NMagM=    2.7928460   0.0000000   2.7928460   2.7928460   0.0000000   2.7928460   2.7928460   0.0000000   2.7928460   2.7928460
 AtZNuc=   1.0000000   8.0000000   1.0000000   1.0000000   8.0000000   1.0000000   1.0000000   8.0000000   1.0000000   1.0000000

  Atom       161         162         163         164         165         166         167         168         169         170
 IAtWgt=          16           1           1          16           1           1          16           1           1          16
 AtmWgt=  15.9949146   1.0078250   1.0078250  15.9949146   1.0078250   1.0078250  15.9949146   1.0078250   1.0078250  15.9949146
 NucSpn=           0           1           1           0           1           1           0           1           1           0
 AtZEff=   0.0000000   0.0000000   0.0000000   0.0000000   0.0000000   0.0000000   0.0000000   0.0000000   0.0000000   0.0000000
 NQMom=    0.0000000   0.0000000   0.0000000   0.0000000   0.0000000   0.0000000   0.0000000   0.0000000   0.0000000   0.0000000
 NMagM=    0.0000000   2.7928460   2.7928460   0.0000000   2.7928460   2.7928460   0.0000000   2.7928460   2.7928460   0.0000000
 AtZNuc=   8.0000000   1.0000000   1.0000000   8.0000000   1.0000000   1.0000000   8.0000000   1.0000000   1.0000000   8.0000000

  Atom       171         172         173         174         175         176         177         178         179         180
 IAtWgt=           1           1          16           1           1          16           1           1          16           1
 AtmWgt=   1.0078250   1.0078250  15.9949146   1.0078250   1.0078250  15.9949146   1.0078250   1.0078250  15.9949146   1.0078250
 NucSpn=           1           1           0           1           1           0           1           1           0           1
 AtZEff=   0.0000000   0.0000000   0.0000000   0.0000000   0.0000000   0.0000000   0.0000000   0.0000000   0.0000000   0.0000000
 NQMom=    0.0000000   0.0000000   0.0000000   0.0000000   0.0000000   0.0000000   0.0000000   0.0000000   0.0000000   0.0000000
 NMagM=    2.7928460   2.7928460   0.0000000   2.7928460   2.7928460   0.0000000   2.7928460   2.7928460   0.0000000   2.7928460
 AtZNuc=   1.0000000   1.0000000   8.0000000   1.0000000   1.0000000   8.0000000   1.0000000   1.0000000   8.0000000   1.0000000

  Atom       181         182         183         184         185         186         187         188         189         190
 IAtWgt=           1          16           1           1          16           1           1          16           1           1
 AtmWgt=   1.0078250  15.9949146   1.0078250   1.0078250  15.9949146   1.0078250   1.0078250  15.9949146   1.0078250   1.0078250
 NucSpn=           1           0           1           1           0           1           1           0           1           1
 AtZEff=   0.0000000   0.0000000   0.0000000   0.0000000   0.0000000   0.0000000   0.0000000   0.0000000   0.0000000   0.0000000
 NQMom=    0.0000000   0.0000000   0.0000000   0.0000000   0.0000000   0.0000000   0.0000000   0.0000000   0.0000000   0.0000000
 NMagM=    2.7928460   0.0000000   2.7928460   2.7928460   0.0000000   2.7928460   2.7928460   0.0000000   2.7928460   2.7928460
 AtZNuc=   1.0000000   8.0000000   1.0000000   1.0000000   8.0000000   1.0000000   1.0000000   8.0000000   1.0000000   1.0000000

  Atom       191         192         193         194         195         196         197         198         199         200
 IAtWgt=          16           1           1          16           1           1          16           1           1          16
 AtmWgt=  15.9949146   1.0078250   1.0078250  15.9949146   1.0078250   1.0078250  15.9949146   1.0078250   1.0078250  15.9949146
 NucSpn=           0           1           1           0           1           1           0           1           1           0
 AtZEff=   0.0000000   0.0000000   0.0000000   0.0000000   0.0000000   0.0000000   0.0000000   0.0000000   0.0000000   0.0000000
 NQMom=    0.0000000   0.0000000   0.0000000   0.0000000   0.0000000   0.0000000   0.0000000   0.0000000   0.0000000   0.0000000
 NMagM=    0.0000000   2.7928460   2.7928460   0.0000000   2.7928460   2.7928460   0.0000000   2.7928460   2.7928460   0.0000000
 AtZNuc=   8.0000000   1.0000000   1.0000000   8.0000000   1.0000000   1.0000000   8.0000000   1.0000000   1.0000000   8.0000000

  Atom       201         202         203         204         205         206         207         208         209         210
 IAtWgt=           1           1          16           1           1          16           1           1          16           1
 AtmWgt=   1.0078250   1.0078250  15.9949146   1.0078250   1.0078250  15.9949146   1.0078250   1.0078250  15.9949146   1.0078250
 NucSpn=           1           1           0           1           1           0           1           1           0           1
 AtZEff=   0.0000000   0.0000000   0.0000000   0.0000000   0.0000000   0.0000000   0.0000000   0.0000000   0.0000000   0.0000000
 NQMom=    0.0000000   0.0000000   0.0000000   0.0000000   0.0000000   0.0000000   0.0000000   0.0000000   0.0000000   0.0000000
 NMagM=    2.7928460   2.7928460   0.0000000   2.7928460   2.7928460   0.0000000   2.7928460   2.7928460   0.0000000   2.7928460
 AtZNuc=   1.0000000   1.0000000   8.0000000   1.0000000   1.0000000   8.0000000   1.0000000   1.0000000   8.0000000   1.0000000

  Atom       211         212         213         214         215         216         217         218         219         220
 IAtWgt=           1          16           1           1          16           1           1          16           1           1
 AtmWgt=   1.0078250  15.9949146   1.0078250   1.0078250  15.9949146   1.0078250   1.0078250  15.9949146   1.0078250   1.0078250
 NucSpn=           1           0           1           1           0           1           1           0           1           1
 AtZEff=   0.0000000   0.0000000   0.0000000   0.0000000   0.0000000   0.0000000   0.0000000   0.0000000   0.0000000   0.0000000
 NQMom=    0.0000000   0.0000000   0.0000000   0.0000000   0.0000000   0.0000000   0.0000000   0.0000000   0.0000000   0.0000000
 NMagM=    2.7928460   0.0000000   2.7928460   2.7928460   0.0000000   2.7928460   2.7928460   0.0000000   2.7928460   2.7928460
 AtZNuc=   1.0000000   8.0000000   1.0000000   1.0000000   8.0000000   1.0000000   1.0000000   8.0000000   1.0000000   1.0000000

  Atom       221         222         223         224         225         226         227         228         229         230
 IAtWgt=          16           1           1          16           1           1          16           1           1          16
 AtmWgt=  15.9949146   1.0078250   1.0078250  15.9949146   1.0078250   1.0078250  15.9949146   1.0078250   1.0078250  15.9949146
 NucSpn=           0           1           1           0           1           1           0           1           1           0
 AtZEff=   0.0000000   0.0000000   0.0000000   0.0000000   0.0000000   0.0000000   0.0000000   0.0000000   0.0000000   0.0000000
 NQMom=    0.0000000   0.0000000   0.0000000   0.0000000   0.0000000   0.0000000   0.0000000   0.0000000   0.0000000   0.0000000
 NMagM=    0.0000000   2.7928460   2.7928460   0.0000000   2.7928460   2.7928460   0.0000000   2.7928460   2.7928460   0.0000000
 AtZNuc=   8.0000000   1.0000000   1.0000000   8.0000000   1.0000000   1.0000000   8.0000000   1.0000000   1.0000000   8.0000000

  Atom       231         232         233         234         235         236         237         238         239         240
 IAtWgt=           1           1          16           1           1          16           1           1          16           1
 AtmWgt=   1.0078250   1.0078250  15.9949146   1.0078250   1.0078250  15.9949146   1.0078250   1.0078250  15.9949146   1.0078250
 NucSpn=           1           1           0           1           1           0           1           1           0           1
 AtZEff=   0.0000000   0.0000000   0.0000000   0.0000000   0.0000000   0.0000000   0.0000000   0.0000000   0.0000000   0.0000000
 NQMom=    0.0000000   0.0000000   0.0000000   0.0000000   0.0000000   0.0000000   0.0000000   0.0000000   0.0000000   0.0000000
 NMagM=    2.7928460   2.7928460   0.0000000   2.7928460   2.7928460   0.0000000   2.7928460   2.7928460   0.0000000   2.7928460
 AtZNuc=   1.0000000   1.0000000   8.0000000   1.0000000   1.0000000   8.0000000   1.0000000   1.0000000   8.0000000   1.0000000

  Atom       241         242         243         244         245         246         247         248         249         250
 IAtWgt=           1          16           1           1          16           1           1          16           1           1
 AtmWgt=   1.0078250  15.9949146   1.0078250   1.0078250  15.9949146   1.0078250   1.0078250  15.9949146   1.0078250   1.0078250
 NucSpn=           1           0           1           1           0           1           1           0           1           1
 AtZEff=   0.0000000   0.0000000   0.0000000   0.0000000   0.0000000   0.0000000   0.0000000   0.0000000   0.0000000   0.0000000
 NQMom=    0.0000000   0.0000000   0.0000000   0.0000000   0.0000000   0.0000000   0.0000000   0.0000000   0.0000000   0.0000000
 NMagM=    2.7928460   0.0000000   2.7928460   2.7928460   0.0000000   2.7928460   2.7928460   0.0000000   2.7928460   2.7928460
 AtZNuc=   1.0000000   8.0000000   1.0000000   1.0000000   8.0000000   1.0000000   1.0000000   8.0000000   1.0000000   1.0000000

  Atom       251         252         253         254         255         256         257         258         259         260
 IAtWgt=          16           1           1          16           1           1          16           1           1          16
 AtmWgt=  15.9949146   1.0078250   1.0078250  15.9949146   1.0078250   1.0078250  15.9949146   1.0078250   1.0078250  15.9949146
 NucSpn=           0           1           1           0           1           1           0           1           1           0
 AtZEff=   0.0000000   0.0000000   0.0000000   0.0000000   0.0000000   0.0000000   0.0000000   0.0000000   0.0000000   0.0000000
 NQMom=    0.0000000   0.0000000   0.0000000   0.0000000   0.0000000   0.0000000   0.0000000   0.0000000   0.0000000   0.0000000
 NMagM=    0.0000000   2.7928460   2.7928460   0.0000000   2.7928460   2.7928460   0.0000000   2.7928460   2.7928460   0.0000000
 AtZNuc=   8.0000000   1.0000000   1.0000000   8.0000000   1.0000000   1.0000000   8.0000000   1.0000000   1.0000000   8.0000000

  Atom       261         262         263         264         265         266         267         268         269         270
 IAtWgt=           1           1          16           1           1          16           1           1          16           1
 AtmWgt=   1.0078250   1.0078250  15.9949146   1.0078250   1.0078250  15.9949146   1.0078250   1.0078250  15.9949146   1.0078250
 NucSpn=           1           1           0           1           1           0           1           1           0           1
 AtZEff=   0.0000000   0.0000000   0.0000000   0.0000000   0.0000000   0.0000000   0.0000000   0.0000000   0.0000000   0.0000000
 NQMom=    0.0000000   0.0000000   0.0000000   0.0000000   0.0000000   0.0000000   0.0000000   0.0000000   0.0000000   0.0000000
 NMagM=    2.7928460   2.7928460   0.0000000   2.7928460   2.7928460   0.0000000   2.7928460   2.7928460   0.0000000   2.7928460
 AtZNuc=   1.0000000   1.0000000   8.0000000   1.0000000   1.0000000   8.0000000   1.0000000   1.0000000   8.0000000   1.0000000

  Atom       271         272         273         274         275         276         277         278         279         280
 IAtWgt=           1          16           1           1          16           1           1          16           1           1
 AtmWgt=   1.0078250  15.9949146   1.0078250   1.0078250  15.9949146   1.0078250   1.0078250  15.9949146   1.0078250   1.0078250
 NucSpn=           1           0           1           1           0           1           1           0           1           1
 AtZEff=   0.0000000   0.0000000   0.0000000   0.0000000   0.0000000   0.0000000   0.0000000   0.0000000   0.0000000   0.0000000
 NQMom=    0.0000000   0.0000000   0.0000000   0.0000000   0.0000000   0.0000000   0.0000000   0.0000000   0.0000000   0.0000000
 NMagM=    2.7928460   0.0000000   2.7928460   2.7928460   0.0000000   2.7928460   2.7928460   0.0000000   2.7928460   2.7928460
 AtZNuc=   1.0000000   8.0000000   1.0000000   1.0000000   8.0000000   1.0000000   1.0000000   8.0000000   1.0000000   1.0000000

  Atom       281         282         283         284         285         286         287         288         289         290
 IAtWgt=          16           1           1          16           1           1          16           1           1          16
 AtmWgt=  15.9949146   1.0078250   1.0078250  15.9949146   1.0078250   1.0078250  15.9949146   1.0078250   1.0078250  15.9949146
 NucSpn=           0           1           1           0           1           1           0           1           1           0
 AtZEff=   0.0000000   0.0000000   0.0000000   0.0000000   0.0000000   0.0000000   0.0000000   0.0000000   0.0000000   0.0000000
 NQMom=    0.0000000   0.0000000   0.0000000   0.0000000   0.0000000   0.0000000   0.0000000   0.0000000   0.0000000   0.0000000
 NMagM=    0.0000000   2.7928460   2.7928460   0.0000000   2.7928460   2.7928460   0.0000000   2.7928460   2.7928460   0.0000000
 AtZNuc=   8.0000000   1.0000000   1.0000000   8.0000000   1.0000000   1.0000000   8.0000000   1.0000000   1.0000000   8.0000000

  Atom       291         292         293         294         295         296         297         298         299         300
 IAtWgt=           1           1          16           1           1          16           1           1          16           1
 AtmWgt=   1.0078250   1.0078250  15.9949146   1.0078250   1.0078250  15.9949146   1.0078250   1.0078250  15.9949146   1.0078250
 NucSpn=           1           1           0           1           1           0           1           1           0           1
 AtZEff=   0.0000000   0.0000000   0.0000000   0.0000000   0.0000000   0.0000000   0.0000000   0.0000000   0.0000000   0.0000000
 NQMom=    0.0000000   0.0000000   0.0000000   0.0000000   0.0000000   0.0000000   0.0000000   0.0000000   0.0000000   0.0000000
 NMagM=    2.7928460   2.7928460   0.0000000   2.7928460   2.7928460   0.0000000   2.7928460   2.7928460   0.0000000   2.7928460
 AtZNuc=   1.0000000   1.0000000   8.0000000   1.0000000   1.0000000   8.0000000   1.0000000   1.0000000   8.0000000   1.0000000

  Atom       301         302         303         304         305         306         307         308         309         310
 IAtWgt=           1          16           1           1          16           1           1          16           1           1
 AtmWgt=   1.0078250  15.9949146   1.0078250   1.0078250  15.9949146   1.0078250   1.0078250  15.9949146   1.0078250   1.0078250
 NucSpn=           1           0           1           1           0           1           1           0           1           1
 AtZEff=   0.0000000   0.0000000   0.0000000   0.0000000   0.0000000   0.0000000   0.0000000   0.0000000   0.0000000   0.0000000
 NQMom=    0.0000000   0.0000000   0.0000000   0.0000000   0.0000000   0.0000000   0.0000000   0.0000000   0.0000000   0.0000000
 NMagM=    2.7928460   0.0000000   2.7928460   2.7928460   0.0000000   2.7928460   2.7928460   0.0000000   2.7928460   2.7928460
 AtZNuc=   1.0000000   8.0000000   1.0000000   1.0000000   8.0000000   1.0000000   1.0000000   8.0000000   1.0000000   1.0000000

  Atom       311         312         313         314         315         316         317         318         319         320
 IAtWgt=          16           1           1          16           1           1          16           1           1          16
 AtmWgt=  15.9949146   1.0078250   1.0078250  15.9949146   1.0078250   1.0078250  15.9949146   1.0078250   1.0078250  15.9949146
 NucSpn=           0           1           1           0           1           1           0           1           1           0
 AtZEff=   0.0000000   0.0000000   0.0000000   0.0000000   0.0000000   0.0000000   0.0000000   0.0000000   0.0000000   0.0000000
 NQMom=    0.0000000   0.0000000   0.0000000   0.0000000   0.0000000   0.0000000   0.0000000   0.0000000   0.0000000   0.0000000
 NMagM=    0.0000000   2.7928460   2.7928460   0.0000000   2.7928460   2.7928460   0.0000000   2.7928460   2.7928460   0.0000000
 AtZNuc=   8.0000000   1.0000000   1.0000000   8.0000000   1.0000000   1.0000000   8.0000000   1.0000000   1.0000000   8.0000000

  Atom       321         322         323         324         325         326         327         328         329         330
 IAtWgt=           1           1          16           1           1          16           1           1          16           1
 AtmWgt=   1.0078250   1.0078250  15.9949146   1.0078250   1.0078250  15.9949146   1.0078250   1.0078250  15.9949146   1.0078250
 NucSpn=           1           1           0           1           1           0           1           1           0           1
 AtZEff=   0.0000000   0.0000000   0.0000000   0.0000000   0.0000000   0.0000000   0.0000000   0.0000000   0.0000000   0.0000000
 NQMom=    0.0000000   0.0000000   0.0000000   0.0000000   0.0000000   0.0000000   0.0000000   0.0000000   0.0000000   0.0000000
 NMagM=    2.7928460   2.7928460   0.0000000   2.7928460   2.7928460   0.0000000   2.7928460   2.7928460   0.0000000   2.7928460
 AtZNuc=   1.0000000   1.0000000   8.0000000   1.0000000   1.0000000   8.0000000   1.0000000   1.0000000   8.0000000   1.0000000

  Atom       331         332         333         334         335         336         337         338         339         340
 IAtWgt=           1          16           1           1          16           1           1          16           1           1
 AtmWgt=   1.0078250  15.9949146   1.0078250   1.0078250  15.9949146   1.0078250   1.0078250  15.9949146   1.0078250   1.0078250
 NucSpn=           1           0           1           1           0           1           1           0           1           1
 AtZEff=   0.0000000   0.0000000   0.0000000   0.0000000   0.0000000   0.0000000   0.0000000   0.0000000   0.0000000   0.0000000
 NQMom=    0.0000000   0.0000000   0.0000000   0.0000000   0.0000000   0.0000000   0.0000000   0.0000000   0.0000000   0.0000000
 NMagM=    2.7928460   0.0000000   2.7928460   2.7928460   0.0000000   2.7928460   2.7928460   0.0000000   2.7928460   2.7928460
 AtZNuc=   1.0000000   8.0000000   1.0000000   1.0000000   8.0000000   1.0000000   1.0000000   8.0000000   1.0000000   1.0000000

  Atom       341         342         343         344         345         346         347         348         349         350
 IAtWgt=          16           1           1          16           1           1          16           1           1          16
 AtmWgt=  15.9949146   1.0078250   1.0078250  15.9949146   1.0078250   1.0078250  15.9949146   1.0078250   1.0078250  15.9949146
 NucSpn=           0           1           1           0           1           1           0           1           1           0
 AtZEff=   0.0000000   0.0000000   0.0000000   0.0000000   0.0000000   0.0000000   0.0000000   0.0000000   0.0000000   0.0000000
 NQMom=    0.0000000   0.0000000   0.0000000   0.0000000   0.0000000   0.0000000   0.0000000   0.0000000   0.0000000   0.0000000
 NMagM=    0.0000000   2.7928460   2.7928460   0.0000000   2.7928460   2.7928460   0.0000000   2.7928460   2.7928460   0.0000000
 AtZNuc=   8.0000000   1.0000000   1.0000000   8.0000000   1.0000000   1.0000000   8.0000000   1.0000000   1.0000000   8.0000000

  Atom       351         352         353         354         355         356         357         358         359         360
 IAtWgt=           1           1          16           1           1          16           1           1          16           1
 AtmWgt=   1.0078250   1.0078250  15.9949146   1.0078250   1.0078250  15.9949146   1.0078250   1.0078250  15.9949146   1.0078250
 NucSpn=           1           1           0           1           1           0           1           1           0           1
 AtZEff=   0.0000000   0.0000000   0.0000000   0.0000000   0.0000000   0.0000000   0.0000000   0.0000000   0.0000000   0.0000000
 NQMom=    0.0000000   0.0000000   0.0000000   0.0000000   0.0000000   0.0000000   0.0000000   0.0000000   0.0000000   0.0000000
 NMagM=    2.7928460   2.7928460   0.0000000   2.7928460   2.7928460   0.0000000   2.7928460   2.7928460   0.0000000   2.7928460
 AtZNuc=   1.0000000   1.0000000   8.0000000   1.0000000   1.0000000   8.0000000   1.0000000   1.0000000   8.0000000   1.0000000

  Atom       361         362         363         364         365         366         367         368         369         370
 IAtWgt=           1          16           1           1          16           1           1          16           1           1
 AtmWgt=   1.0078250  15.9949146   1.0078250   1.0078250  15.9949146   1.0078250   1.0078250  15.9949146   1.0078250   1.0078250
 NucSpn=           1           0           1           1           0           1           1           0           1           1
 AtZEff=   0.0000000   0.0000000   0.0000000   0.0000000   0.0000000   0.0000000   0.0000000   0.0000000   0.0000000   0.0000000
 NQMom=    0.0000000   0.0000000   0.0000000   0.0000000   0.0000000   0.0000000   0.0000000   0.0000000   0.0000000   0.0000000
 NMagM=    2.7928460   0.0000000   2.7928460   2.7928460   0.0000000   2.7928460   2.7928460   0.0000000   2.7928460   2.7928460
 AtZNuc=   1.0000000   8.0000000   1.0000000   1.0000000   8.0000000   1.0000000   1.0000000   8.0000000   1.0000000   1.0000000

  Atom       371         372         373         374         375         376         377         378         379         380
 IAtWgt=          16           1           1          16           1           1          16           1           1          16
 AtmWgt=  15.9949146   1.0078250   1.0078250  15.9949146   1.0078250   1.0078250  15.9949146   1.0078250   1.0078250  15.9949146
 NucSpn=           0           1           1           0           1           1           0           1           1           0
 AtZEff=   0.0000000   0.0000000   0.0000000   0.0000000   0.0000000   0.0000000   0.0000000   0.0000000   0.0000000   0.0000000
 NQMom=    0.0000000   0.0000000   0.0000000   0.0000000   0.0000000   0.0000000   0.0000000   0.0000000   0.0000000   0.0000000
 NMagM=    0.0000000   2.7928460   2.7928460   0.0000000   2.7928460   2.7928460   0.0000000   2.7928460   2.7928460   0.0000000
 AtZNuc=   8.0000000   1.0000000   1.0000000   8.0000000   1.0000000   1.0000000   8.0000000   1.0000000   1.0000000   8.0000000

  Atom       381         382         383         384         385
 IAtWgt=           1           1          16           1           1
 AtmWgt=   1.0078250   1.0078250  15.9949146   1.0078250   1.0078250
 NucSpn=           1           1           0           1           1
 AtZEff=   0.0000000   0.0000000   0.0000000   0.0000000   0.0000000
 NQMom=    0.0000000   0.0000000   0.0000000   0.0000000   0.0000000
 NMagM=    2.7928460   2.7928460   0.0000000   2.7928460   2.7928460
 AtZNuc=   1.0000000   1.0000000   8.0000000   1.0000000   1.0000000
 Leave Link  101 at Tue May 15 10:16:48 2018, MaxMem= 14763950080 cpu:        33.2
 (Enter /cm/shared/gaussian/g09.e01/intel64-sandybridge/g09/l103.exe)

 GradGradGradGradGradGradGradGradGradGradGradGradGradGradGradGradGradGrad
 Berny optimization.
 Initialization pass.
 Trust Radius=3.00D-01 FncErr=1.00D-07 GrdErr=1.00D-07
 Number of steps in this run=      2 maximum allowed number of steps=      2.
 GradGradGradGradGradGradGradGradGradGradGradGradGradGradGradGradGradGrad

 Leave Link  103 at Tue May 15 10:16:48 2018, MaxMem= 14763950080 cpu:         3.6
 (Enter /cm/shared/gaussian/g09.e01/intel64-sandybridge/g09/l202.exe)
 Symmetry turned off by external request.
 Stoichiometry    BrH256O128(1-)
 Framework group  C1[X(BrH256O128)]
 Deg. of freedom  1149
 Full point group                 C1      NOp   1
                          Input orientation:                          
 ---------------------------------------------------------------------
 Center     Atomic      Atomic             Coordinates (Angstroms)
 Number     Number       Type             X           Y           Z
 ---------------------------------------------------------------------
      1         35           0       20.000000   20.000000   20.000000
      2          8           0       21.780000   22.250000   18.910000
      3          1           0       21.270000   21.670000   19.470000
      4          1           0       21.150000   22.870000   18.570000
      5          8           0       18.110000   19.050000   22.350000
      6          1           0       18.390000   19.450000   21.530000
      7          1           0       17.150000   19.040000   22.310000
      8          8           0       21.350000   18.760000   22.640000
      9          1           0       20.760000   19.160000   21.990000
     10          1           0       22.130000   18.510000   22.130000
     11          8           0       21.590000   17.870000   17.890000
     12          1           0       21.130000   18.470000   18.470000
     13          1           0       22.490000   18.190000   17.870000
     14          8           0       17.670000   22.420000   18.730000
     15          1           0       16.940000   22.180000   19.300000
     16          1           0       18.430000   22.020000   19.160000
     17          8           0       20.140000   16.570000   21.220000
     18          1           0       20.160000   17.140000   21.980000
     19          1           0       20.450000   17.110000   20.500000
     20          8           0       23.000000   21.290000   22.130000
     21          1           0       23.510000   20.510000   21.910000
     22          1           0       22.250000   21.260000   21.540000
     23          8           0       17.740000   17.970000   17.350000
     24          1           0       18.460000   18.260000   17.910000
     25          1           0       18.090000   17.220000   16.870000
     26          8           0       23.210000   20.700000   17.050000
     27          1           0       22.890000   21.250000   16.340000
     28          1           0       22.880000   21.120000   17.850000
     29          8           0       17.660000   21.810000   24.150000
     30          1           0       17.880000   21.330000   23.350000
     31          1           0       17.260000   21.140000   24.710000
     32          8           0       23.490000   17.900000   21.210000
     33          1           0       24.020000   17.540000   21.910000
     34          1           0       23.970000   17.680000   20.410000
     35          8           0       18.640000   18.070000   24.880000
     36          1           0       18.880000   18.450000   24.030000
     37          1           0       17.900000   18.590000   25.180000
     38          8           0       22.030000   22.160000   24.440000
     39          1           0       22.100000   21.740000   23.580000
     40          1           0       22.200000   23.090000   24.260000
     41          8           0       19.470000   24.360000   17.720000
     42          1           0       18.720000   23.790000   17.900000
     43          1           0       19.680000   24.750000   18.570000
     44          8           0       15.020000   18.030000   19.730000
     45          1           0       15.630000   18.630000   19.300000
     46          1           0       15.540000   17.590000   20.400000
     47          8           0       24.050000   23.920000   18.580000
     48          1           0       23.380000   23.250000   18.700000
     49          1           0       24.820000   23.570000   19.010000
     50          8           0       15.370000   19.390000   17.050000
     51          1           0       16.170000   18.890000   17.200000
     52          1           0       15.680000   20.260000   16.780000
     53          8           0       21.990000   15.460000   16.740000
     54          1           0       21.650000   16.280000   17.100000
     55          1           0       21.590000   14.780000   17.280000
     56          8           0       21.460000   17.490000   24.980000
     57          1           0       21.700000   18.160000   24.340000
     58          1           0       20.500000   17.490000   24.980000
     59          8           0       15.700000   22.860000   20.870000
     60          1           0       15.590000   22.050000   21.360000
     61          1           0       15.100000   23.480000   21.280000
     62          8           0       17.270000   15.120000   18.560000
     63          1           0       17.110000   16.070000   18.540000
     64          1           0       16.700000   14.770000   17.880000
     65          8           0       16.140000   21.930000   16.290000
     66          1           0       16.600000   22.340000   15.560000
     67          1           0       16.460000   22.390000   17.060000
     68          8           0       19.300000   16.070000   16.430000
     69          1           0       19.290000   15.170000   16.760000
     70          1           0       20.230000   16.290000   16.380000
     71          8           0       20.630000   21.160000   14.600000
     72          1           0       20.400000   20.500000   13.930000
     73          1           0       19.790000   21.500000   14.890000
     74          8           0       18.210000   19.520000   14.500000
     75          1           0       17.880000   18.960000   15.200000
     76          1           0       18.010000   20.410000   14.800000
     77          8           0       18.360000   14.260000   21.110000
     78          1           0       18.260000   14.570000   20.210000
     79          1           0       18.630000   15.040000   21.600000
     80          8           0       15.350000   20.050000   22.770000
     81          1           0       15.400000   20.920000   23.180000
     82          1           0       15.190000   19.450000   23.500000
     83          8           0       15.940000   16.860000   21.770000
     84          1           0       16.290000   15.970000   21.870000
     85          1           0       15.780000   17.150000   22.670000
     86          8           0       25.510000   21.740000   20.750000
     87          1           0       24.830000   22.220000   21.230000
     88          1           0       25.720000   21.000000   21.320000
     89          8           0       21.350000   13.930000   21.230000
     90          1           0       21.170000   14.840000   21.480000
     91          1           0       20.630000   13.430000   21.600000
     92          8           0       24.270000   18.610000   15.620000
     93          1           0       23.810000   19.320000   16.060000
     94          1           0       24.980000   19.040000   15.140000
     95          8           0       19.750000   25.820000   20.010000
     96          1           0       19.390000   25.500000   20.840000
     97          1           0       19.970000   26.740000   20.190000
     98          8           0       22.500000   22.930000   15.440000
     99          1           0       21.770000   22.380000   15.160000
    100          1           0       22.110000   23.810000   15.510000
    101          8           0       19.000000   15.480000   24.190000
    102          1           0       18.930000   16.390000   24.470000
    103          1           0       18.760000   14.970000   24.960000
    104          8           0       24.330000   16.500000   17.330000
    105          1           0       24.340000   17.190000   16.670000
    106          1           0       23.530000   16.020000   17.160000
    107          8           0       19.520000   21.890000   26.310000
    108          1           0       20.320000   21.640000   25.850000
    109          1           0       18.840000   21.890000   25.640000
    110          8           0       15.960000   25.210000   18.590000
    111          1           0       15.130000   25.660000   18.780000
    112          1           0       16.250000   24.870000   19.440000
    113          8           0       18.330000   22.840000   14.780000
    114          1           0       17.780000   23.430000   15.280000
    115          1           0       18.780000   23.400000   14.150000
    116          8           0       17.920000   24.530000   24.550000
    117          1           0       17.710000   23.600000   24.550000
    118          1           0       17.110000   24.960000   24.260000
    119          8           0       22.440000   25.360000   23.000000
    120          1           0       21.500000   25.440000   22.820000
    121          1           0       22.850000   25.990000   22.410000
    122          8           0       20.980000   13.650000   18.700000
    123          1           0       20.450000   12.850000   18.670000
    124          1           0       21.170000   13.780000   19.620000
    125          8           0       13.850000   21.570000   18.240000
    126          1           0       14.420000   22.110000   17.700000
    127          1           0       14.010000   20.670000   17.940000
    128          8           0       19.880000   25.770000   22.950000
    129          1           0       19.810000   26.680000   23.230000
    130          1           0       19.290000   25.300000   23.540000
    131          8           0       25.510000   16.620000   19.740000
    132          1           0       24.990000   15.810000   19.780000
    133          1           0       25.490000   16.880000   18.820000
    134          8           0       12.990000   19.400000   21.420000
    135          1           0       13.800000   19.830000   21.710000
    136          1           0       13.290000   18.740000   20.790000
    137          8           0       15.740000   17.550000   24.290000
    138          1           0       14.870000   17.260000   24.580000
    139          1           0       16.310000   17.360000   25.040000
    140          8           0       26.660000   20.600000   16.850000
    141          1           0       25.790000   20.950000   17.030000
    142          1           0       27.250000   21.140000   17.370000
    143          8           0       24.600000   16.130000   22.790000
    144          1           0       24.220000   15.630000   23.520000
    145          1           0       24.590000   15.520000   22.050000
    146          8           0       24.060000   14.270000   21.000000
    147          1           0       24.160000   13.430000   20.570000
    148          1           0       23.180000   14.240000   21.390000
    149          8           0       18.150000   27.260000   17.820000
    150          1           0       18.700000   27.530000   17.090000
    151          1           0       18.610000   26.500000   18.200000
    152          8           0       27.150000   17.680000   21.560000
    153          1           0       26.340000   17.490000   21.080000
    154          1           0       27.460000   16.820000   21.860000
    155          8           0       25.360000   23.620000   22.820000
    156          1           0       25.760000   24.330000   22.310000
    157          1           0       24.610000   24.020000   23.250000
    158          8           0       16.400000   20.180000   25.920000
    159          1           0       16.900000   20.250000   26.730000
    160          1           0       15.500000   20.040000   26.200000
    161          8           0       23.780000   21.100000   26.620000
    162          1           0       24.360000   21.240000   25.870000
    163          1           0       22.910000   21.050000   26.240000
    164          8           0       27.430000   22.260000   18.840000
    165          1           0       26.740000   21.970000   19.440000
    166          1           0       28.210000   22.320000   19.390000
    167          8           0       22.770000   14.740000   24.380000
    168          1           0       22.180000   15.340000   24.840000
    169          1           0       22.190000   14.040000   24.060000
    170          8           0       12.790000   16.440000   19.880000
    171          1           0       13.620000   16.880000   19.660000
    172          1           0       12.950000   15.510000   19.690000
    173          8           0       13.570000   16.840000   16.480000
    174          1           0       12.800000   17.190000   16.040000
    175          1           0       14.050000   17.610000   16.780000
    176          8           0       19.190000   17.400000   12.590000
    177          1           0       18.680000   16.690000   12.970000
    178          1           0       18.970000   18.170000   13.110000
    179          8           0       15.290000   24.910000   15.800000
    180          1           0       14.520000   25.430000   16.040000
    181          1           0       15.760000   24.780000   16.630000
    182          8           0       23.970000   16.210000   14.250000
    183          1           0       23.440000   16.320000   13.460000
    184          1           0       23.940000   17.060000   14.680000
    185          8           0       22.090000   17.900000   27.510000
    186          1           0       23.040000   18.050000   27.540000
    187          1           0       21.920000   17.630000   26.610000
    188          8           0       23.820000   26.530000   17.260000
    189          1           0       23.850000   26.510000   16.310000
    190          1           0       23.940000   25.610000   17.520000
    191          8           0       18.670000   13.360000   16.630000
    192          1           0       19.310000   12.670000   16.790000
    193          1           0       18.160000   13.400000   17.440000
    194          8           0       25.930000   17.500000   25.000000
    195          1           0       26.850000   17.640000   24.760000
    196          1           0       25.470000   17.440000   24.170000
    197          8           0       25.760000   21.840000   24.550000
    198          1           0       25.890000   22.550000   23.920000
    199          1           0       26.020000   21.050000   24.080000
    200          8           0       26.940000   19.990000   22.740000
    201          1           0       27.870000   20.210000   22.770000
    202          1           0       26.910000   19.120000   22.360000
    203          8           0       25.100000   22.440000   14.160000
    204          1           0       24.210000   22.580000   14.490000
    205          1           0       25.120000   21.520000   13.910000
    206          8           0       14.390000   21.940000   24.660000
    207          1           0       14.200000   21.230000   25.270000
[...]
   Y335      53.76271   0.00598   0.00000   0.00355   0.00326  53.76597
   Z335      34.27963   0.01132   0.00000   0.01054   0.00998  34.28961
   X336      29.81988   0.00373   0.00000   0.00220   0.00158  29.82146
   Y336      54.51860   0.00003   0.00000  -0.00194  -0.00225  54.51635
   Z336      32.65447  -0.00597   0.00000  -0.00102  -0.00158  32.65288
   X337      31.04820   0.01627   0.00000   0.01190   0.01128  31.05948
   Y337      52.74226  -0.00754   0.00000  -0.00342  -0.00362  52.73863
   Z337      34.50640  -0.01012   0.00000  -0.01614  -0.01660  34.48980
   X338      30.91592   0.01194   0.00000   0.00622   0.00615  30.92207
   Y338      50.81474   0.02552   0.00000   0.02258   0.02224  50.83697
   Z338      27.06088  -0.01181   0.00000  -0.00149  -0.00192  27.05896
   X339      30.65136  -0.01177   0.00000  -0.01299  -0.01307  30.63828
   Y339      49.68090  -0.01604   0.00000  -0.00870  -0.00904  49.67186
   Z339      28.44038   0.01557   0.00000   0.00700   0.00658  28.44695
   X340      29.46083  -0.00444   0.00000  -0.00051  -0.00049  29.46034
   Y340      50.60687  -0.00363   0.00000  -0.00269  -0.00314  50.60372
   Z340      26.00263  -0.00146   0.00000  -0.00024  -0.00075  26.00188
   X341      35.86700  -0.01002   0.00000  -0.00776  -0.00915  35.85786
   Y341      51.26827   0.02221   0.00000   0.01880   0.01912  51.28739
   Z341      48.35809  -0.01854   0.00000  -0.01049  -0.01063  48.34746
   X342      36.84966   0.01219   0.00000   0.01012   0.00871  36.85837
   Y342      50.47459  -0.01164   0.00000  -0.00672  -0.00633  50.46826
   Z342      49.64311   0.00944   0.00000  -0.00277  -0.00283  49.64027
   X343      34.31743  -0.00123   0.00000   0.00331   0.00198  34.31941
   Y343      50.34230  -0.01111   0.00000  -0.01395  -0.01372  50.32859
   Z343      48.30140   0.00364   0.00000   0.00422   0.00400  48.30540
   X344      41.57397   0.00893   0.00000   0.00390   0.00493  41.57891
   Y344      37.94570  -0.00537   0.00000  -0.00217  -0.00202  37.94368
   Z344      21.03265   0.00232   0.00000   0.00193   0.00238  21.03503
   X345      39.91102  -0.01498   0.00000  -0.01371  -0.01272  39.89830
   Y345      38.66380  -0.00137   0.00000  -0.00711  -0.00705  38.65674
   Z345      21.08934   0.00114   0.00000   0.00092   0.00125  21.09060
   X346      42.55663   0.00592   0.00000   0.00645   0.00747  42.56410
   Y346      39.19292   0.00156   0.00000  -0.00005   0.00014  39.19306
   Z346      20.16338  -0.00212   0.00000  -0.00188  -0.00139  20.16199
   X347      26.56955   0.00243   0.00000   0.00463   0.00506  26.57461
   Y347      25.41682  -0.00010   0.00000   0.00282   0.00250  25.41932
   Z347      42.72671   0.01504   0.00000   0.01085   0.01061  42.73732
   X348      25.54910  -0.00497   0.00000  -0.00636  -0.00600  25.54310
   Y348      26.90970   0.00202   0.00000  -0.00032  -0.00070  26.90900
   Z348      42.51884  -0.00338   0.00000  -0.00348  -0.00381  42.51503
   X349      27.15536   0.00195   0.00000  -0.00068  -0.00013  27.15523
   Y349      25.03887  -0.00028   0.00000   0.00130   0.00099  25.03987
   Z349      41.06375  -0.01128   0.00000  -0.00600  -0.00620  41.05755
   X350      35.64023   0.00082   0.00000  -0.00271  -0.00284  35.63740
   Y350      26.79632  -0.00508   0.00000  -0.00936  -0.00902  26.78730
   Z350      50.53128  -0.01670   0.00000  -0.01007  -0.00978  50.52150
   X351      34.33632  -0.01031   0.00000  -0.00594  -0.00616  34.33016
   Y351      27.38213   0.00844   0.00000   0.00926   0.00954  27.39168
   Z351      51.62732   0.00906   0.00000   0.00442   0.00461  51.63193
   X352      36.83076   0.00927   0.00000   0.00864   0.00850  36.83926
   Y352      26.00263  -0.00136   0.00000   0.00250   0.00293  26.00556
   Z352      51.62732   0.00865   0.00000   0.00651   0.00688  51.63420
   X353      25.79476   0.00366   0.00000   0.00217   0.00147  25.79623
   Y353      37.66224  -0.00666   0.00000  -0.00524  -0.00547  37.65677
   Z353      49.81318   0.00183   0.00000   0.00806   0.00755  49.82073
   X354      25.30343   0.00081   0.00000   0.00064   0.00005  25.30348
   Y354      35.90480  -0.00225   0.00000  -0.00419  -0.00445  35.90035
   Z354      49.83208  -0.00716   0.00000  -0.01145  -0.01196  49.82012
   X355      24.47195  -0.00764   0.00000  -0.00623  -0.00704  24.46492
   Y355      38.49372   0.00553   0.00000   0.00435   0.00406  38.49778
   Z355      50.72025   0.00625   0.00000   0.00651   0.00591  50.72616
   X356      44.86210   0.00739   0.00000   0.00833   0.00827  44.87037
   Y356      50.32341  -0.00399   0.00000  -0.00572  -0.00527  50.31814
   Z356      27.43882   0.00665   0.00000  -0.00005   0.00038  27.43920
   X357      45.03217   0.00157   0.00000   0.00202   0.00195  45.03413
   Y357      51.66511   0.00788   0.00000   0.00616   0.00660  51.67171
   Z357      26.24830  -0.00533   0.00000  -0.00273  -0.00231  26.24598
   X358      43.74716  -0.01127   0.00000  -0.01431  -0.01425  43.73291
   Y358      49.15178  -0.00210   0.00000   0.00135   0.00172  49.15350
   Z358      26.62624  -0.00135   0.00000   0.00147   0.00185  26.62809
   X359      36.24495  -0.00769   0.00000  -0.00795  -0.00860  36.23635
   Y359      31.23717  -0.00542   0.00000  -0.00214  -0.00169  31.23549
   Z359      55.02882  -0.00867   0.00000  -0.00953  -0.00929  55.01954
   X360      37.37878   0.00618   0.00000   0.00866   0.00803  37.38681
   Y360      32.08755   0.00137   0.00000  -0.00050   0.00000  32.08755
   Z360      53.87609   0.00119   0.00000   0.00264   0.00294  53.87903
   X361      36.39613   0.00305   0.00000   0.00391   0.00311  36.39923
   Y361      32.16314   0.00373   0.00000   0.00068   0.00117  32.16431
   Z361      56.57840   0.00286   0.00000  -0.00188  -0.00164  56.57676
   X362      45.78806   0.01309   0.00000   0.00931   0.00921  45.79727
   Y362      26.36168   0.00239   0.00000   0.00089   0.00181  26.36349
   Z362      50.53128   0.01539   0.00000   0.01078   0.01170  50.54297
   X363      44.89989  -0.00568   0.00000  -0.00357  -0.00357  44.89632
   Y363      24.79321  -0.00494   0.00000  -0.00195  -0.00108  24.79213
   Z363      50.43679  -0.00435   0.00000  -0.00515  -0.00427  50.43252
   X364      45.10776  -0.00633   0.00000  -0.00371  -0.00378  45.10398
   Y364      27.36323  -0.00032   0.00000  -0.00659  -0.00573  27.35750
   Z364      49.18957  -0.01072   0.00000  -0.00777  -0.00692  49.18265
   X365      22.43105   0.00158   0.00000   0.00095   0.00115  22.43220
   Y365      29.57421  -0.00594   0.00000   0.00021  -0.00034  29.57387
   Z365      42.51884   0.01694   0.00000   0.01095   0.01039  42.52923
   X366      20.63581  -0.00492   0.00000  -0.00480  -0.00460  20.63121
   Y366      29.49862  -0.00251   0.00000  -0.00381  -0.00446  29.49417
   Z366      42.76450  -0.00153   0.00000  -0.00268  -0.00335  42.76115
   X367      22.63892   0.00949   0.00000   0.01375   0.01401  22.65293
   Y367      30.36790   0.01046   0.00000   0.00878   0.00821  30.37611
   Z367      40.89367  -0.01704   0.00000  -0.00936  -0.00993  40.88374
   X368      50.21002   0.02810   0.00000   0.01970   0.02088  50.23090
   Y368      30.87813   0.00695   0.00000   0.00679   0.00751  30.88563
   Z368      25.32233  -0.01634   0.00000  -0.01071  -0.00960  25.31273
   X369      48.77383  -0.02113   0.00000  -0.01375  -0.01265  48.76118
   Y369      30.99151  -0.00780   0.00000  -0.01142  -0.01076  30.98074
   Z369      26.39947   0.00755   0.00000  -0.00474  -0.00373  26.39575
   X370      50.41789  -0.00400   0.00000  -0.00443  -0.00314  50.41476
   Y370      29.10178  -0.00036   0.00000   0.00044   0.00117  29.10295
   Z370      25.00108   0.00442   0.00000   0.00461   0.00576  25.00683
   X371      37.45437   0.00487   0.00000   0.00215   0.00337  37.45775
   Y371      21.01375   0.00547   0.00000   0.00056   0.00070  21.01446
   Z371      33.84500  -0.00519   0.00000  -0.00066  -0.00016  33.84483
   X372      38.21026   0.00279   0.00000   0.00331   0.00466  38.21493
   Y372      19.86102   0.00044   0.00000   0.00136   0.00153  19.86255
   Z372      32.65447  -0.00216   0.00000  -0.00301  -0.00244  32.65203
   X373      36.84966  -0.00607   0.00000  -0.00651  -0.00531  36.84435
   Y373      19.95551  -0.00890   0.00000  -0.00753  -0.00740  19.94811
   Z373      35.16780   0.01068   0.00000   0.00787   0.00835  35.17616
   X374      56.33274   0.01417   0.00000   0.00957   0.00977  56.34251
   Y374      33.50484   0.00782   0.00000   0.00388   0.00519  33.51003
   Z374      38.85277   0.00678   0.00000   0.00188   0.00331  38.85607
   X375      54.66978  -0.01067   0.00000  -0.00751  -0.00734  54.66243
   Y375      34.22294  -0.00179   0.00000  -0.00646  -0.00524  34.21770
   Z375      38.83387   0.00015   0.00000   0.00068   0.00200  38.83587
   X376      56.14376  -0.00393   0.00000  -0.00354  -0.00319  56.14057
   Y376      31.93637  -0.00765   0.00000  -0.00405  -0.00277  31.93360
   Z376      37.98350  -0.00660   0.00000  -0.00623  -0.00479  37.97871
   X377      39.04174  -0.00541   0.00000  -0.00302  -0.00450  39.03725
   Y377      49.07619  -0.00263   0.00000  -0.00259  -0.00203  49.07416
   Z377      51.89188  -0.00840   0.00000  -0.00257  -0.00247  51.88941
   X378      40.23227  -0.00148   0.00000  -0.00360  -0.00499  40.22728
   Y378      47.69669  -0.00472   0.00000  -0.00675  -0.00613  47.69056
   Z378      51.87298   0.00144   0.00000   0.00166   0.00185  51.87484
   X379      39.23071   0.00443   0.00000   0.00677   0.00515  39.23587
   Y379      49.83208   0.00396   0.00000   0.00177   0.00237  49.83445
   Z379      53.51704   0.01149   0.00000   0.00834   0.00844  53.52548
   X380      34.97883  -0.01989   0.00000  -0.01576  -0.01502  34.96381
   Y380      44.12511  -0.00532   0.00000  -0.00477  -0.00501  44.12009
   Z380      20.12558  -0.00647   0.00000  -0.00272  -0.00278  20.12280
   X381      35.75362   0.01008   0.00000   0.00739   0.00801  35.76163
   Y381      44.31408   0.01224   0.00000   0.01905   0.01888  44.33296
   Z381      21.75075   0.00911   0.00000   0.00235   0.00233  21.75308
   X382      36.33943   0.00663   0.00000   0.00063   0.00143  36.34087
   Y382      44.35187   0.00174   0.00000   0.00130   0.00111  44.35298
   Z382      18.95395  -0.00316   0.00000  -0.00045  -0.00043  18.95352
   X383      34.16625  -0.00176   0.00000  -0.00196  -0.00164  34.16461
   Y383      22.77120  -0.01401   0.00000  -0.01078  -0.01059  22.76061
   Z383      46.99749  -0.00643   0.00000  -0.00023   0.00004  46.99753
   X384      32.40880  -0.00483   0.00000  -0.00405  -0.00376  32.40504
   Y384      23.20584   0.00319   0.00000   0.00311   0.00320  23.20904
   Z384      47.11087  -0.00077   0.00000  -0.00271  -0.00255  47.10832
   X385      34.99773   0.00238   0.00000  -0.00218  -0.00200  34.99573
   Y385      23.96173   0.01208   0.00000   0.00927   0.00953  23.97126
   Z385      48.07463   0.00948   0.00000   0.00609   0.00639  48.08102
         Item               Value     Threshold  Converged?
 Maximum Force            0.037593     0.000450     NO 
 RMS     Force            0.011078     0.000300     NO 
 Maximum Displacement     0.033518     0.001800     NO 
 RMS     Displacement     0.008808     0.001200     NO 
 Predicted change in Energy=-7.707021D-02
 GradGradGradGradGradGradGradGradGradGradGradGradGradGradGradGradGradGrad

 Leave Link  103 at Tue May 15 12:32:19 2018, MaxMem= 14763950080 cpu:      3149.9
 (Enter /cm/shared/gaussian/g09.e01/intel64-sandybridge/g09/l9999.exe)
 1\1\GINC-POPLE04\Force\RPBE1PBE\CC-pVDZ\Br1H256O128(1-)\M.PELUSO\15-Ma
 y-2018\0\\#p PBE1PBE/cc-pvDZ force Counterpoise=2 noSymm\\forces on ch
 loride comput - NWATER: 128\\-1,1\Br,20.,20.,20.\O,21.78,22.25,18.91\H
 ,21.27,21.67,19.47\H,21.15,22.87,18.57\O,18.11,19.05,22.35\H,18.39,19.
 45,21.53\H,17.15,19.04,22.31\O,21.35,18.76,22.64\H,20.76,19.16,21.99\H
 ,22.13,18.51,22.13\O,21.59,17.87,17.89\H,21.13,18.47,18.47\H,22.49,18.
 19,17.87\O,17.67,22.42,18.73\H,16.94,22.18,19.3\H,18.43,22.02,19.16\O,
 20.14,16.57,21.22\H,20.16,17.14,21.98\H,20.45,17.11,20.5\O,23.,21.29,2
 2.13\H,23.51,20.51,21.91\H,22.25,21.26,21.54\O,17.74,17.97,17.35\H,18.
 46,18.26,17.91\H,18.09,17.22,16.87\O,23.21,20.7,17.05\H,22.89,21.25,16
 .34\H,22.88,21.12,17.85\O,17.66,21.81,24.15\H,17.88,21.33,23.35\H,17.2
 6,21.14,24.71\O,23.49,17.9,21.21\H,24.02,17.54,21.91\H,23.97,17.68,20.
 41\O,18.64,18.07,24.88\H,18.88,18.45,24.03\H,17.9,18.59,25.18\O,22.03,
 22.16,24.44\H,22.1,21.74,23.58\H,22.2,23.09,24.26\O,19.47,24.36,17.72\
 H,18.72,23.79,17.9\H,19.68,24.75,18.57\O,15.02,18.03,19.73\H,15.63,18.
 63,19.3\H,15.54,17.59,20.4\O,24.05,23.92,18.58\H,23.38,23.25,18.7\H,24
 .82,23.57,19.01\O,15.37,19.39,17.05\H,16.17,18.89,17.2\H,15.68,20.26,1
 6.78\O,21.99,15.46,16.74\H,21.65,16.28,17.1\H,21.59,14.78,17.28\O,21.4
 6,17.49,24.98\H,21.7,18.16,24.34\H,20.5,17.49,24.98\O,15.7,22.86,20.87
 \H,15.59,22.05,21.36\H,15.1,23.48,21.28\O,17.27,15.12,18.56\H,17.11,16
 .07,18.54\H,16.7,14.77,17.88\O,16.14,21.93,16.29\H,16.6,22.34,15.56\H,
 16.46,22.39,17.06\O,19.3,16.07,16.43\H,19.29,15.17,16.76\H,20.23,16.29
 ,16.38\O,20.63,21.16,14.6\H,20.4,20.5,13.93\H,19.79,21.5,14.89\O,18.21
 ,19.52,14.5\H,17.88,18.96,15.2\H,18.01,20.41,14.8\O,18.36,14.26,21.11\
 H,18.26,14.57,20.21\H,18.63,15.04,21.6\O,15.35,20.05,22.77\H,15.4,20.9
 2,23.18\H,15.19,19.45,23.5\O,15.94,16.86,21.77\H,16.29,15.97,21.87\H,1
 5.78,17.15,22.67\O,25.51,21.74,20.75\H,24.83,22.22,21.23\H,25.72,21.,2
 1.32\O,21.35,13.93,21.23\H,21.17,14.84,21.48\H,20.63,13.43,21.6\O,24.2
 7,18.61,15.62\H,23.81,19.32,16.06\H,24.98,19.04,15.14\O,19.75,25.82,20
 .01\H,19.39,25.5,20.84\H,19.97,26.74,20.19\O,22.5,22.93,15.44\H,21.77,
 22.38,15.16\H,22.11,23.81,15.51\O,19.,15.48,24.19\H,18.93,16.39,24.47\
 H,18.76,14.97,24.96\O,24.33,16.5,17.33\H,24.34,17.19,16.67\H,23.53,16.
 02,17.16\O,19.52,21.89,26.31\H,20.32,21.64,25.85\H,18.84,21.89,25.64\O
 ,15.96,25.21,18.59\H,15.13,25.66,18.78\H,16.25,24.87,19.44\O,18.33,22.
 84,14.78\H,17.78,23.43,15.28\H,18.78,23.4,14.15\O,17.92,24.53,24.55\H,
 17.71,23.6,24.55\H,17.11,24.96,24.26\O,22.44,25.36,23.\H,21.5,25.44,22
 .82\H,22.85,25.99,22.41\O,20.98,13.65,18.7\H,20.45,12.85,18.67\H,21.17
 ,13.78,19.62\O,13.85,21.57,18.24\H,14.42,22.11,17.7\H,14.01,20.67,17.9
 4\O,19.88,25.77,22.95\H,19.81,26.68,23.23\H,19.29,25.3,23.54\O,25.51,1
 6.62,19.74\H,24.99,15.81,19.78\H,25.49,16.88,18.82\O,12.99,19.4,21.42\
 H,13.8,19.83,21.71\H,13.29,18.74,20.79\O,15.74,17.55,24.29\H,14.87,17.
 26,24.58\H,16.31,17.36,25.04\O,26.66,20.6,16.85\H,25.79,20.95,17.03\H,
 27.25,21.14,17.37\O,24.6,16.13,22.79\H,24.22,15.63,23.52\H,24.59,15.52
 ,22.05\O,24.06,14.27,21.\H,24.16,13.43,20.57\H,23.18,14.24,21.39\O,18.
 15,27.26,17.82\H,18.7,27.53,17.09\H,18.61,26.5,18.2\O,27.15,17.68,21.5
 6\H,26.34,17.49,21.08\H,27.46,16.82,21.86\O,25.36,23.62,22.82\H,25.76,
 24.33,22.31\H,24.61,24.02,23.25\O,16.4,20.18,25.92\H,16.9,20.25,26.73\
 H,15.5,20.04,26.2\O,23.78,21.1,26.62\H,24.36,21.24,25.87\H,22.91,21.05
 ,26.24\O,27.43,22.26,18.84\H,26.74,21.97,19.44\H,28.21,22.32,19.39\O,2
 2.77,14.74,24.38\H,22.18,15.34,24.84\H,22.19,14.04,24.06\O,12.79,16.44
 ,19.88\H,13.62,16.88,19.66\H,12.95,15.51,19.69\O,13.57,16.84,16.48\H,1
 2.8,17.19,16.04\H,14.05,17.61,16.78\O,19.19,17.4,12.59\H,18.68,16.69,1
 2.97\H,18.97,18.17,13.11\O,15.29,24.91,15.8\H,14.52,25.43,16.04\H,15.7
 6,24.78,16.63\O,23.97,16.21,14.25\H,23.44,16.32,13.46\H,23.94,17.06,14
 .68\O,22.09,17.9,27.51\H,23.04,18.05,27.54\H,21.92,17.63,26.61\O,23.82
 ,26.53,17.26\H,23.85,26.51,16.31\H,23.94,25.61,17.52\O,18.67,13.36,16.
 63\H,19.31,12.67,16.79\H,18.16,13.4,17.44\O,25.93,17.5,25.\H,26.85,17.
 64,24.76\H,25.47,17.44,24.17\O,25.76,21.84,24.55\H,25.89,22.55,23.92\H
 ,26.02,21.05,24.08\O,26.94,19.99,22.74\H,27.87,20.21,22.77\H,26.91,19.
 12,22.36\O,25.1,22.44,14.16\H,24.21,22.58,14.49\H,25.12,21.52,13.91\O,
 14.39,21.94,24.66\H,14.2,21.23,25.27\H,14.9,22.57,25.17\O,21.66,13.37,
 15.07\H,22.38,13.15,14.49\H,21.87,14.24,15.41\O,16.31,12.43,20.37\H,16
 .63,11.8,19.72\H,17.06,12.99,20.56\O,19.2,11.88,22.39\H,18.96,12.72,22
 .01\H,18.72,11.84,23.22\O,13.06,22.83,22.54\H,12.69,23.67,22.8\H,13.6,
 22.57,23.28\O,12.3,23.17,19.8\H,12.94,22.8,19.19\H,12.58,22.87,20.66\O
 ,15.17,18.08,13.88\H,14.59,17.51,14.38\H,14.98,18.96,14.21\O,17.03,15.
 94,13.65\H,16.5,16.69,13.92\H,16.47,15.47,13.03\O,14.97,14.63,16.75\H,
 14.51,15.47,16.74\H,14.42,14.05,16.22\O,24.22,23.84,25.52\H,24.9,23.21
 ,25.28\H,23.64,23.35,26.11\O,17.52,27.59,20.81\H,17.,27.27,20.07\H,18.
 27,28.02,20.41\O,21.95,17.32,12.6\H,20.99,17.32,12.67\H,22.15,18.1,12.
 09\O,27.4,17.9,16.14\H,28.33,18.11,16.09\H,27.04,18.54,16.76\O,14.61,2
 6.14,21.52\H,14.34,27.05,21.65\H,15.36,26.02,22.11\O,21.1,25.62,14.07\
 H,20.19,25.87,14.19\H,21.06,24.72,13.75\O,11.55,20.15,19.22\H,12.13,20
 .7,18.69\H,11.95,20.15,20.09\O,19.41,20.94,11.72\H,18.78,20.3,12.04\H,
 18.88,21.64,11.33\O,16.7,26.66,23.12\H,16.78,27.05,22.26\H,16.9,27.37,
 23.73\O,19.89,22.22,28.82\H,19.89,22.32,27.87\H,20.67,21.7,29.01\O,17.
 ,19.51,11.69\H,16.59,19.31,12.54\H,16.38,20.09,11.25\O,20.56,23.34,12.
 49\H,21.39,23.61,12.1\H,20.37,22.49,12.08\O,26.89,14.68,17.03\H,26.01,
 15.06,17.14\H,26.8,13.78,17.32\O,23.61,27.3,21.62\H,24.56,27.39,21.54\
 H,23.26,28.,21.06\O,13.61,20.8,14.7\H,12.89,20.21,14.48\H,13.21,21.67,
 14.76\O,17.7,24.39,27.87\H,17.77,24.21,26.94\H,18.37,25.06,28.04\O,16.
 34,16.55,26.8\H,16.8,17.22,27.29\H,15.45,16.55,27.17\O,20.41,27.98,15.
 99\H,20.55,27.18,15.49\H,21.28,28.23,16.29\O,26.41,24.64,15.43\H,26.51
 ,24.29,16.31\H,25.61,24.22,15.1\O,14.03,13.41,19.39\H,14.29,13.72,18.5
 2\H,14.79,12.92,19.7\O,26.44,19.72,14.19\H,26.62,18.87,14.59\H,26.92,2
 0.34,14.75\O,11.57,20.24,23.58\H,12.36,20.63,23.96\H,11.78,20.12,22.65
 \O,13.14,25.76,19.31\H,12.77,24.89,19.42\H,13.69,25.89,20.08\O,17.73,2
 0.54,28.32\H,17.26,20.41,29.15\H,18.38,21.21,28.52\O,23.48,26.35,26.13
 \H,22.59,26.31,26.49\H,23.61,25.51,25.7\O,22.27,28.8,17.99\H,21.43,28.
 57,18.4\H,22.83,28.04,18.15\O,20.23,28.72,19.95\H,20.64,29.03,20.75\H,
 19.72,29.47,19.64\O,21.47,19.99,29.31\H,20.94,19.5,29.95\H,21.56,19.39
 ,28.57\O,24.95,17.98,27.52\H,25.41,18.82,27.48\H,25.11,17.59,26.66\O,1
 8.91,13.57,13.37\H,19.19,13.45,14.28\H,18.29,14.29,13.39\O,18.45,25.6,
 13.47\H,18.4,25.67,12.51\H,17.76,26.17,13.79\O,23.45,11.78,19.73\H,23.
 62,11.09,20.37\H,22.54,11.65,19.47\O,12.91,17.35,24.42\H,12.51,16.64,2
 3.9\H,12.16,17.77,24.84\O,15.02,24.27,25.86\H,15.35,25.16,25.75\H,14.0
 7,24.35,25.75\O,15.65,28.45,18.14\H,15.78,28.85,17.28\H,16.43,27.91,18
 .26\O,16.36,26.89,14.32\H,16.22,26.29,15.05\H,15.59,26.78,13.76\O,18.9
 8,27.13,25.59\H,19.5,26.71,26.27\H,18.16,26.64,25.56\O,22.,20.08,11.13
 \H,21.12,20.46,11.16\H,22.52,20.74,10.67\O,14.06,13.45,22.61\H,13.52,1
 4.24,22.5\H,14.37,13.25,21.73\O,18.86,14.18,26.74\H,18.17,14.49,27.32\
 H,19.49,13.76,27.32\O,13.65,19.93,26.36\H,13.39,19.,26.37\H,12.95,20.3
 7,26.84\O,23.74,26.63,14.52\H,23.83,27.34,13.89\H,23.15,26.01,14.09\O,
 19.18,16.53,29.12\H,19.78,16.98,28.51\H,19.26,17.02,29.94\O,24.23,13.9
 5,26.74\H,23.76,13.12,26.69\H,23.87,14.48,26.03\O,11.87,15.65,22.5\H,1
 0.92,15.61,22.63\H,11.98,16.07,21.64\O,26.57,16.34,13.4\H,25.81,16.4,1
 3.97\H,26.68,15.4,13.23\O,19.82,11.12,17.91\H,20.22,10.51,17.28\H,19.5
 ,10.56,18.61\O,29.81,17.73,20.56\H,28.93,18.11,20.55\H,29.71,16.9,20.1
 \O,20.66,25.97,27.46\H,21.29,25.24,27.45\H,20.76,26.37,28.32\O,18.51,2
 3.35,10.65\H,18.92,23.45,11.51\H,19.23,23.47,10.03\O,18.08,12.05,24.87
 \H,17.15,12.28,24.93\H,18.52,12.68,25.44\\Version=ES64L-G09RevE.01\HF=
 -9773.4698244\RMSD=1.450e-09\RMSF=1.108e-02\Dipole=-11.619737,2.056531
 2,4.6975383\Quadrupole=-783.9147164,320.1166849,463.7980314,-1790.7859
 963,-1670.9302344,-1228.6282685\PG=C01 [X(Br1H256O128)]\\@


 ON A TOMBSTONE, "HERE LIES LESTER MOORE,
 FOUR SLUGS FROM A 44, NO LES, NO MORE".
 Job cpu time:       5 days 22 hours  1 minutes 27.3 seconds.
 File lengths (MBytes):  RWF=   7285 Int=      0 D2E=      0 Chk=   2411 Scr=      1
 Normal termination of Gaussian 09 at Tue May 15 12:32:53 2018.
