 Entering Gaussian System, Link 0=/cm/shared/gaussian/g09.e01/intel64-sandybridge/g09/g09
 Initial command:
 /cm/shared/gaussian/g09.e01/intel64-sandybridge/g09/l1.exe "/local/scratch/m.peluso/128_wat/370/Gau-57588.inp" -scrdir="/local/scratch/m.peluso/128_wat/370/"
 Entering Link 1 = /cm/shared/gaussian/g09.e01/intel64-sandybridge/g09/l1.exe PID=     57589.
  
 Copyright (c) 1988,1990,1992,1993,1995,1998,2003,2009,2015,
            Gaussian, Inc.  All Rights Reserved.
  
 This is part of the Gaussian(R) 09 program.  It is based on
 the Gaussian(R) 03 system (copyright 2003, Gaussian, Inc.),
 the Gaussian(R) 98 system (copyright 1998, Gaussian, Inc.),
 the Gaussian(R) 94 system (copyright 1995, Gaussian, Inc.),
 the Gaussian 92(TM) system (copyright 1992, Gaussian, Inc.),
 the Gaussian 90(TM) system (copyright 1990, Gaussian, Inc.),
 the Gaussian 88(TM) system (copyright 1988, Gaussian, Inc.),
 the Gaussian 86(TM) system (copyright 1986, Carnegie Mellon
 University), and the Gaussian 82(TM) system (copyright 1983,
 Carnegie Mellon University). Gaussian is a federally registered
 trademark of Gaussian, Inc.
  
 This software contains proprietary and confidential information,
 including trade secrets, belonging to Gaussian, Inc.
  
 This software is provided under written license and may be
 used, copied, transmitted, or stored only in accord with that
 written license.
  
 The following legend is applicable only to US Government
 contracts under FAR:
  
                    RESTRICTED RIGHTS LEGEND
  
 Use, reproduction and disclosure by the US Government is
 subject to restrictions as set forth in subparagraphs (a)
 and (c) of the Commercial Computer Software - Restricted
 Rights clause in FAR 52.227-19.
  
 Gaussian, Inc.
 340 Quinnipiac St., Bldg. 40, Wallingford CT 06492
  
  
 ---------------------------------------------------------------
 Warning -- This program may not be used in any manner that
 competes with the business of Gaussian, Inc. or will provide
 assistance to any competitor of Gaussian, Inc.  The licensee
 of this program is prohibited from giving any competitor of
 Gaussian, Inc. access to this program.  By using this program,
 the user acknowledges that Gaussian, Inc. is engaged in the
 business of creating and licensing software in the field of
 computational chemistry and represents and warrants to the
 licensee that it is not a competitor of Gaussian, Inc. and that
 it will not use this program in any manner prohibited above.
 ---------------------------------------------------------------
  

 Cite this work as:
 Gaussian 09, Revision E.01,
 M. J. Frisch, G. W. Trucks, H. B. Schlegel, G. E. Scuseria, 
 M. A. Robb, J. R. Cheeseman, G. Scalmani, V. Barone, B. Mennucci, 
 G. A. Petersson, H. Nakatsuji, M. Caricato, X. Li, H. P. Hratchian, 
 A. F. Izmaylov, J. Bloino, G. Zheng, J. L. Sonnenberg, M. Hada, 
 M. Ehara, K. Toyota, R. Fukuda, J. Hasegawa, M. Ishida, T. Nakajima, 
 Y. Honda, O. Kitao, H. Nakai, T. Vreven, J. A. Montgomery, Jr., 
 J. E. Peralta, F. Ogliaro, M. Bearpark, J. J. Heyd, E. Brothers, 
 K. N. Kudin, V. N. Staroverov, T. Keith, R. Kobayashi, J. Normand, 
 K. Raghavachari, A. Rendell, J. C. Burant, S. S. Iyengar, J. Tomasi, 
 M. Cossi, N. Rega, J. M. Millam, M. Klene, J. E. Knox, J. B. Cross, 
 V. Bakken, C. Adamo, J. Jaramillo, R. Gomperts, R. E. Stratmann, 
 O. Yazyev, A. J. Austin, R. Cammi, C. Pomelli, J. W. Ochterski, 
 R. L. Martin, K. Morokuma, V. G. Zakrzewski, G. A. Voth, 
 P. Salvador, J. J. Dannenberg, S. Dapprich, A. D. Daniels, 
 O. Farkas, J. B. Foresman, J. V. Ortiz, J. Cioslowski, 
 and D. J. Fox, Gaussian, Inc., Wallingford CT, 2013.
 
 ******************************************
 Gaussian 09:  ES64L-G09RevE.01 30-Nov-2015
                 5-May-2018 
 ******************************************
 %Mem=110GB
 %NProcShared=64
 Will use up to   64 processors via shared memory.
 %chk=snap109.chk
 ----------------------------------------------
 #p PBE1PBE/cc-pvDZ force Counterpoise=2 noSymm
 ----------------------------------------------
 1/10=7,30=1,38=1,62=2/1,3;
 2/12=2,15=1,17=6,18=5,40=1/2;
 1/10=7,30=1,38=1,53=2,62=2,63=101/22;
 3/5=16,11=2,16=1,25=1,30=1,71=1,74=-13/1,2,3;
 4//1;
 5/5=2,38=5/2;
 6/7=2,8=2,9=2,10=2,28=1/1;
 7/7=1,29=1,30=1,33=-1/1,2,3,16;
 1/10=7,30=1,53=2,62=2,63=101/22;
 3/5=7,6=11,11=2,16=1,25=1,30=1,71=1,74=-13,82=7/1,2,3;
 4//1;
 5/5=2,38=5/2;
 6/7=2,8=2,9=2,10=2,28=1/1;
 7/7=1,29=1,30=1,33=-1/1,2,3,16;
 1/10=7,30=1,53=2,62=2,63=101/22(-5);
 7/9=1,29=1,44=-1/16;
 1/10=7,30=1,62=2/3;
 99//99;
 Leave Link    1 at Sat May  5 07:57:32 2018, MaxMem= 14763950080 cpu:         8.6
 (Enter /cm/shared/gaussian/g09.e01/intel64-sandybridge/g09/l101.exe)
 ---------------------------------------
 forces on chloride comput - NWATER: 128
 ---------------------------------------
 Symbolic Z-matrix:
 Charge = -1 Multiplicity = 1 in supermolecule
 Charge = -1 Multiplicity = 1 in fragment      1.
 Charge =  0 Multiplicity = 1 in fragment      2.
 Br(Fragment=1)        20.       20.       20. 
 O(Fragment=2)         17.53     21.35     21.33 
 H(Fragment=2)         18.38     20.94     21.19 
 H(Fragment=2)         17.13     21.39     20.46 
 O(Fragment=2)         21.01     18.58     17.37 
 H(Fragment=2)         21.96     18.56     17.24 
 H(Fragment=2)         20.9      18.94     18.25 
 O(Fragment=2)         19.51     22.01     17.33 
 H(Fragment=2)         19.69     21.32     17.97 
 H(Fragment=2)         20.28     22.03     16.77 
 O(Fragment=2)         19.35     16.63     20.05 
 H(Fragment=2)         19.39     17.57     19.88 
 H(Fragment=2)         18.43     16.4      19.92 
 O(Fragment=2)         22.2      18.02     21.97 
 H(Fragment=2)         21.7      18.05     22.78 
 H(Fragment=2)         21.66     18.48     21.33 
 O(Fragment=2)         20.82     20.57     23.46 
 H(Fragment=2)         20.05     20.12     23.12 
 H(Fragment=2)         21.56     20.22     22.96 
 O(Fragment=2)         20.78     23.78     20.42 
 H(Fragment=2)         21.45     23.24     20.01 
 H(Fragment=2)         20.12     23.9      19.73 
 O(Fragment=2)         16.18     19.27     21.44 
 H(Fragment=2)         16.81     18.58     21.21 
 H(Fragment=2)         16.68     20.08     21.36 
 O(Fragment=2)         17.09     17.33     18.63 
 H(Fragment=2)         17.35     16.88     17.83 
 H(Fragment=2)         17.13     18.26     18.4 
 O(Fragment=2)         16.72     21.71     18.78 
 H(Fragment=2)         16.68     22.51     18.25 
 H(Fragment=2)         16.78     21.       18.14 
 O(Fragment=2)         22.25     16.35     19.12 
 H(Fragment=2)         22.65     17.19     19.34 
 H(Fragment=2)         21.52     16.26     19.73 
 O(Fragment=2)         23.63     19.53     17.6 
 H(Fragment=2)         24.26     18.82     17.66 
 H(Fragment=2)         23.68     19.97     18.45 
 O(Fragment=2)         22.76     22.78     18.91 
 H(Fragment=2)         23.65     22.45     19.06 
 H(Fragment=2)         22.66     22.78     17.96 
 O(Fragment=2)         20.62     20.52     15.25 
 H(Fragment=2)         20.87     20.04     14.46 
 H(Fragment=2)         20.76     19.9      15.97 
 O(Fragment=2)         18.78     22.5      23.75 
 H(Fragment=2)         19.49     21.87     23.81 
 H(Fragment=2)         18.26     22.2      23. 
 O(Fragment=2)         21.72     23.41     22.93 
 H(Fragment=2)         21.23     23.77     22.19 
 H(Fragment=2)         21.5      22.48     22.93 
 O(Fragment=2)         19.78     16.93     23.65 
 H(Fragment=2)         19.25     16.49     24.32 
 H(Fragment=2)         19.46     17.83     23.64 
 O(Fragment=2)         17.29     19.83     16.2 
 H(Fragment=2)         17.18     18.9      16.02 
 H(Fragment=2)         18.23     19.99     16.09 
 O(Fragment=2)         18.7      24.31     18.78 
 H(Fragment=2)         18.56     25.16     18.34 
 H(Fragment=2)         18.79     23.69     18.06 
 O(Fragment=2)         16.75     23.86     21.24 
 H(Fragment=2)         17.14     24.06     20.39 
 H(Fragment=2)         17.11     23.       21.47 
 O(Fragment=2)         19.34     17.56     15.63 
 H(Fragment=2)         18.82     16.83     15.98 
 H(Fragment=2)         20.1      17.61     16.22 
 O(Fragment=2)         18.04     19.       23.91 
 H(Fragment=2)         17.91     18.37     24.62 
 H(Fragment=2)         17.17     19.37     23.75 
 O(Fragment=2)         20.91     15.38     21.68 
 H(Fragment=2)         20.43     15.9      22.33 
 H(Fragment=2)         20.47     15.55     20.85 
 O(Fragment=2)         24.64     19.81     20.33 
 H(Fragment=2)         25.01     19.81     21.22 
 H(Fragment=2)         25.21     20.4      19.84 
 O(Fragment=2)         17.5      23.32     16.21 
 H(Fragment=2)         17.28     23.09     15.31 
 H(Fragment=2)         18.24     22.75     16.43 
 O(Fragment=2)         24.52     17.03     21.13 
 H(Fragment=2)         23.66     16.84     21.51 
 H(Fragment=2)         24.45     17.94     20.83 
 O(Fragment=2)         22.55     22.35     15.61 
 H(Fragment=2)         21.99     21.57     15.57 
 H(Fragment=2)         23.44     22.       15.59 
 O(Fragment=2)         23.44     24.95     20.92 
 H(Fragment=2)         23.97     24.98     20.13 
 H(Fragment=2)         22.64     24.48     20.67 
 O(Fragment=2)         14.96     21.08     23.36 
 H(Fragment=2)         14.49     21.53     22.66 
 H(Fragment=2)         15.53     20.46     22.9 
 O(Fragment=2)         20.13     14.18     17.79 
 H(Fragment=2)         20.28     14.9      18.41 
 H(Fragment=2)         20.67     13.46     18.12 
 O(Fragment=2)         21.74     19.16     25.97 
 H(Fragment=2)         22.45     19.68     26.35 
 H(Fragment=2)         21.48     19.64     25.18 
 O(Fragment=2)         14.17     19.25     19.12 
 H(Fragment=2)         14.63     19.19     19.96 
 H(Fragment=2)         14.05     20.19     18.98 
 O(Fragment=2)         24.57     23.21     23.16 
 H(Fragment=2)         24.6      22.36     22.7 
 H(Fragment=2)         23.87     23.69     22.73 
 O(Fragment=2)         25.48     22.3      19.45 
 H(Fragment=2)         25.85     22.67     20.26 
 H(Fragment=2)         26.09     22.57     18.76 
 O(Fragment=2)         18.46     25.07     24.37 
 H(Fragment=2)         19.26     25.43     24. 
 H(Fragment=2)         18.35     24.23     23.94 
 O(Fragment=2)         14.48     16.42     20.72 
 H(Fragment=2)         14.66     15.63     20.21 
 H(Fragment=2)         14.7      17.14     20.13 
 O(Fragment=2)         17.98     14.28     20.7 
 H(Fragment=2)         17.12     14.21     21.12 
 H(Fragment=2)         18.58     13.85     21.31 
 O(Fragment=2)         21.59     24.       25.57 
 H(Fragment=2)         22.14     24.77     25.48 
 H(Fragment=2)         21.49     23.66     24.68 
 O(Fragment=2)         22.67     13.67     22.05 
 H(Fragment=2)         22.91     13.78     22.97 
 H(Fragment=2)         21.98     14.31     21.89 
 O(Fragment=2)         15.65     20.9      14.38 
 H(Fragment=2)         16.04     20.33     15.04 
 H(Fragment=2)         14.74     21.01     14.66 
 O(Fragment=2)         14.26     17.76     23.31 
 H(Fragment=2)         14.71     17.5      22.51 
 H(Fragment=2)         13.72     18.51     23.06 
 O(Fragment=2)         22.17     15.22     15.51 
 H(Fragment=2)         22.59     14.38     15.33 
 H(Fragment=2)         21.54     15.04     16.2 
 O(Fragment=2)         16.14     17.31     15.57 
 H(Fragment=2)         16.       16.6      14.95 
 H(Fragment=2)         15.31     17.4      16.04 
 O(Fragment=2)         25.66     20.57     23.17 
 H(Fragment=2)         25.49     19.87     23.81 
 H(Fragment=2)         26.25     21.17     23.62 
 O(Fragment=2)         15.33     23.75     24.36 
 H(Fragment=2)         16.12     24.3      24.42 
 H(Fragment=2)         15.58     23.04     23.78 
 O(Fragment=2)         21.73     27.23     20.75 
 H(Fragment=2)         21.82     26.44     20.21 
 H(Fragment=2)         21.7      26.9      21.65 
 O(Fragment=2)         15.54     24.94     16.65 
 H(Fragment=2)         16.19     24.25     16.48 
 H(Fragment=2)         16.06     25.69     16.93 
 O(Fragment=2)         17.93     18.55     13.26 
 H(Fragment=2)         17.42     18.3      14.04 
 H(Fragment=2)         18.71     17.99     13.29 
 O(Fragment=2)         17.93     16.78     25.52 
 H(Fragment=2)         18.35     16.05     25.98 
 H(Fragment=2)         17.01     16.51     25.43 
 O(Fragment=2)         27.       17.66     19.33 
 H(Fragment=2)         27.86     17.51     19.72 
 H(Fragment=2)         26.39     17.6      20.05 
 O(Fragment=2)         19.17     23.23     26.71 
 H(Fragment=2)         20.06     23.55     26.57 
 H(Fragment=2)         18.74     23.3      25.86 
 O(Fragment=2)         22.69     26.3      23.24 
 H(Fragment=2)         23.49     26.8      23.39 
 H(Fragment=2)         22.91     25.73     22.5 
 O(Fragment=2)         23.49     21.27     26.37 
 H(Fragment=2)         23.52     21.63     27.26 
 H(Fragment=2)         23.11     21.98     25.85 
 O(Fragment=2)         24.83     20.44     14.91 
 H(Fragment=2)         25.5      21.02     15.27 
 H(Fragment=2)         25.12     19.56     15.16 
 O(Fragment=2)         16.48     26.91     21.31 
 H(Fragment=2)         16.45     25.96     21.17 
 H(Fragment=2)         15.75     27.25     20.79 
 O(Fragment=2)         13.59     22.49     21.53 
 H(Fragment=2)         13.33     23.32     21.93 
 H(Fragment=2)         13.46     22.63     20.59 
 O(Fragment=2)         21.16     26.17     16.72 
 H(Fragment=2)         20.96     25.83     15.85 
 H(Fragment=2)         20.65     26.97     16.79 
 O(Fragment=2)         26.98     17.38     22.05 
 H(Fragment=2)         27.6      16.66     22.01 
 H(Fragment=2)         26.12     16.97     21.93 
 O(Fragment=2)         19.59     12.8      22.33 
 H(Fragment=2)         20.38     13.13     21.9 
 H(Fragment=2)         19.65     13.14     23.23 
 O(Fragment=2)         23.64     26.15     17.79 
 H(Fragment=2)         24.06     25.68     17.07 
 H(Fragment=2)         22.71     26.17     17.56 
 O(Fragment=2)         17.       13.35     17.42 
 H(Fragment=2)         16.44     13.9      17.96 
 H(Fragment=2)         17.89     13.53     17.74 
 O(Fragment=2)         25.72     17.05     16.82 
 H(Fragment=2)         26.25     16.75     16.08 
 H(Fragment=2)         26.35     17.29     17.49 
 O(Fragment=2)         16.45     20.65     26.45 
 H(Fragment=2)         15.59     20.39     26.1 
 H(Fragment=2)         16.58     21.54     26.14 
 O(Fragment=2)         24.31     17.41     13.92 
 H(Fragment=2)         25.1      16.87     13.97 
 H(Fragment=2)         23.68     16.98     14.49 
 O(Fragment=2)         18.1      21.11     12.31 
 H(Fragment=2)         18.99     21.19     11.97 
 H(Fragment=2)         18.14     20.39     12.94 
 O(Fragment=2)         24.3      13.39     19.97 
 H(Fragment=2)         24.36     14.11     19.35 
 H(Fragment=2)         23.54     13.6      20.52 
 O(Fragment=2)         22.75     20.08     13.14 
 H(Fragment=2)         23.6      19.86     13.53 
 H(Fragment=2)         22.91     20.9      12.68 
 O(Fragment=2)         18.27     18.5      27.59 
 H(Fragment=2)         18.28     19.36     27.16 
 H(Fragment=2)         18.09     17.89     26.87 
 O(Fragment=2)         13.84     22.51     16.64 
 H(Fragment=2)         12.92     22.73     16.49 
 H(Fragment=2)         14.29     23.35     16.58 
 O(Fragment=2)         13.41     19.69     15.6 
 H(Fragment=2)         13.35     19.9      16.54 
 H(Fragment=2)         12.6      19.22     15.41 
 O(Fragment=2)         16.77     23.07     13.33 
 H(Fragment=2)         17.31     22.49     12.79 
 H(Fragment=2)         16.32     22.49     13.94 
 O(Fragment=2)         13.9      21.55     25.7 
 H(Fragment=2)         14.48     22.22     26.07 
 H(Fragment=2)         14.23     21.42     24.81 
 O(Fragment=2)         25.32     23.53     14.58 
 H(Fragment=2)         24.4      23.54     14.84 
 H(Fragment=2)         25.34     22.97     13.8 
 O(Fragment=2)         15.41     16.01     25.08 
 H(Fragment=2)         15.2      16.09     26.01 
 H(Fragment=2)         14.9      16.7      24.65 
 O(Fragment=2)         27.83     20.65     17.55 
 H(Fragment=2)         27.29     19.86     17.57 
 H(Fragment=2)         28.42     20.56     18.3 
 O(Fragment=2)         15.87     14.02     22.54 
 H(Fragment=2)         16.02     14.2      23.47 
 H(Fragment=2)         15.08     14.52     22.32 
 O(Fragment=2)         11.66     19.22     18.13 
 H(Fragment=2)         11.26     18.39     17.89 
 H(Fragment=2)         12.51     18.99     18.49 
 O(Fragment=2)         25.77     19.98     26.02 
 H(Fragment=2)         26.26     20.25     26.79 
 H(Fragment=2)         25.09     20.65     25.92 
 O(Fragment=2)         25.06     14.78     23.74 
 H(Fragment=2)         25.55     15.49     23.31 
 H(Fragment=2)         25.53     14.64     24.57 
 O(Fragment=2)         17.78     26.72     16.49 
 H(Fragment=2)         17.6      27.06     17.37 
 H(Fragment=2)         17.94     27.5      15.96 
 O(Fragment=2)         20.02     13.48     25.06 
 H(Fragment=2)         20.23     14.28     25.54 
 H(Fragment=2)         19.51     12.95     25.68 
 O(Fragment=2)         25.75     24.33     25.25 
 H(Fragment=2)         25.26     23.84     24.59 
 H(Fragment=2)         26.59     23.87     25.31 
 O(Fragment=2)         21.93     15.08     27.07 
 H(Fragment=2)         21.74     15.1      28.01 
 H(Fragment=2)         21.93     16.       26.81 
 O(Fragment=2)         12.06     19.67     21.92 
 H(Fragment=2)         11.93     20.05     21.05 
 H(Fragment=2)         12.2      20.43     22.49 
 O(Fragment=2)         25.71     26.44     19.67 
 H(Fragment=2)         26.37     26.27     18.99 
 H(Fragment=2)         24.88     26.51     19.19 
 O(Fragment=2)         17.7      25.72     13.96 
 H(Fragment=2)         17.64     25.95     14.89 
 H(Fragment=2)         17.02     25.06     13.83 
 O(Fragment=2)         21.97     17.83     11.74 
 H(Fragment=2)         22.43     18.43     12.32 
 H(Fragment=2)         21.63     17.14     12.32 
 O(Fragment=2)         14.72     13.71     19.61 
 H(Fragment=2)         15.26     12.92     19.59 
 H(Fragment=2)         13.9      13.44     19.2 
 O(Fragment=2)         13.96     15.65     16.34 
 H(Fragment=2)         13.35     15.76     15.61 
 H(Fragment=2)         13.42     15.81     17.12 
 O(Fragment=2)         20.96     15.2      12.62 
 H(Fragment=2)         21.61     14.8      12.04 
 H(Fragment=2)         21.17     14.87     13.49 
 O(Fragment=2)         20.44     19.93     11.47 
 H(Fragment=2)         21.09     19.28     11.71 
 H(Fragment=2)         19.6      19.49     11.59 
 O(Fragment=2)         24.27     17.86     27.74 
 H(Fragment=2)         24.63     17.       27.52 
 H(Fragment=2)         24.42     18.39     26.95 
 O(Fragment=2)         22.42     12.13     18.36 
 H(Fragment=2)         21.93     11.42     18.79 
 H(Fragment=2)         23.24     12.19     18.85 
 O(Fragment=2)         27.47     23.79     20.75 
 H(Fragment=2)         27.07     24.63     20.98 
 H(Fragment=2)         28.17     23.68     21.38 
 O(Fragment=2)         14.14     18.14     13.14 
 H(Fragment=2)         14.37     18.7      13.88 
 H(Fragment=2)         13.19     18.04     13.19 
 O(Fragment=2)         26.74     17.65     24.89 
 H(Fragment=2)         27.06     17.68     23.99 
 H(Fragment=2)         26.62     18.57     25.13 
 O(Fragment=2)         18.06     21.76     28.63 
 H(Fragment=2)         17.19     21.46     28.36 
 H(Fragment=2)         18.34     22.37     27.94 
 O(Fragment=2)         17.35     14.52     13.66 
 H(Fragment=2)         16.85     15.13     13.12 
 H(Fragment=2)         18.26     14.8      13.55 
 O(Fragment=2)         16.88     26.67     25.87 
 H(Fragment=2)         17.29     26.24     25.12 
 H(Fragment=2)         17.12     26.13     26.62 
 O(Fragment=2)         12.84     24.5      23.21 
 H(Fragment=2)         13.7      24.49     23.62 
 H(Fragment=2)         12.59     25.42     23.18 
 O(Fragment=2)         20.46     26.11     14.04 
 H(Fragment=2)         19.52     26.01     13.89 
 H(Fragment=2)         20.57     27.02     14.29 
 O(Fragment=2)         26.19     25.19     16.67 
 H(Fragment=2)         26.44     25.99     16.22 
 H(Fragment=2)         26.01     24.56     15.97 
 O(Fragment=2)         13.21     26.07     17.44 
 H(Fragment=2)         13.58     26.86     17.06 
 H(Fragment=2)         13.92     25.42     17.38 
 O(Fragment=2)         11.5      16.4      20.49 
 H(Fragment=2)         10.87     16.35     21.22 
 H(Fragment=2)         12.35     16.23     20.89 
 O(Fragment=2)         23.05     13.22     25.37 
 H(Fragment=2)         23.56     13.92     24.96 
 H(Fragment=2)         22.39     13.68     25.89 
 O(Fragment=2)         17.33     28.38     18.73 
 H(Fragment=2)         17.7      28.34     19.6 
 H(Fragment=2)         16.58     28.98     18.81 
 O(Fragment=2)         19.73     29.59     19.83 
 H(Fragment=2)         19.64     28.65     19.66 
 H(Fragment=2)         20.64     29.7      20.09 
 O(Fragment=2)         21.07     20.61     28.65 
 H(Fragment=2)         20.35     21.2      28.89 
 H(Fragment=2)         20.68     19.74     28.68 
 O(Fragment=2)         12.23     23.98     19.58 
 H(Fragment=2)         11.7      24.62     20.06 
 H(Fragment=2)         12.02     24.13     18.66 
 O(Fragment=2)         17.36     28.41     23.28 
 H(Fragment=2)         17.25     27.71     23.93 
 H(Fragment=2)         17.22     27.97     22.44 
 O(Fragment=2)         16.09     11.48     19.45 
 H(Fragment=2)         16.65     11.93     18.81 
 H(Fragment=2)         16.32     10.55     19.34 
 O(Fragment=2)         10.58     21.53     19.92 
 H(Fragment=2)         11.34     22.02     19.59 
 H(Fragment=2)         10.3      21.       19.17 
 O(Fragment=2)         14.23     25.5      14.15 
 H(Fragment=2)         14.26     26.42     14.43 
 H(Fragment=2)         14.76     25.04     14.8 
 O(Fragment=2)         15.61     12.97     15.16 
 H(Fragment=2)         16.19     13.46     14.57 
 H(Fragment=2)         16.03     13.04     16.02 
 O(Fragment=2)         23.73     28.94     17.7 
 H(Fragment=2)         23.93     29.18     16.8 
 H(Fragment=2)         23.66     27.99     17.69 
 O(Fragment=2)         25.15     11.94     17.27 
 H(Fragment=2)         24.54     11.38     16.8 
 H(Fragment=2)         24.8      12.83     17.14 
 O(Fragment=2)         11.33     21.96     23.64 
 H(Fragment=2)         11.26     22.79     23.16 
 H(Fragment=2)         12.14     22.05     24.14 
 O(Fragment=2)         19.9      17.81     29.6 
 H(Fragment=2)         19.28     17.93     28.87 
 H(Fragment=2)         19.62     17.01     30.03 
 O(Fragment=2)         28.45     24.5      18.13 
 H(Fragment=2)         27.68     24.68     17.6 
 H(Fragment=2)         28.11     24.12     18.94 
 O(Fragment=2)         18.19     14.76     27.29 
 H(Fragment=2)         17.31     15.1      27.42 
 H(Fragment=2)         18.26     14.02     27.88 
 O(Fragment=2)         26.13     12.84     21.95 
 H(Fragment=2)         25.67     13.18     22.71 
 H(Fragment=2)         25.45     12.75     21.28 
 O(Fragment=2)         27.72     20.7      14.6 
 H(Fragment=2)         27.94     20.28     15.44 
 H(Fragment=2)         28.18     21.54     14.63 
 O(Fragment=2)         23.55     26.58     14.11 
 H(Fragment=2)         22.69     26.83     14.45 
 H(Fragment=2)         23.4      25.74     13.69 
 O(Fragment=2)         14.22     27.2      20.04 
 H(Fragment=2)         13.7      26.66     19.43 
 H(Fragment=2)         13.57     27.6      20.61 
 O(Fragment=2)         15.64     23.09     27.49 
 H(Fragment=2)         15.21     22.78     28.28 
 H(Fragment=2)         16.01     23.94     27.74 
 O(Fragment=2)         23.56     20.24     29.13 
 H(Fragment=2)         22.67     20.35     28.8 
 H(Fragment=2)         23.91     19.5      28.63 
 O(Fragment=2)         25.58     21.42     12.05 
 H(Fragment=2)         25.73     20.89     12.82 
 H(Fragment=2)         26.44     21.52     11.65 
 O(Fragment=2)         17.64     25.06     28.08 
 H(Fragment=2)         18.27     24.35     27.97 
 H(Fragment=2)         17.91     25.5      28.88 
 
 NAtoms=    385 NQM=      385 NQMF=       0 NMMI=      0 NMMIF=      0
                NMic=       0 NMicF=      0.
                    Isotopes and Nuclear Properties:
 (Nuclear quadrupole moments (NQMom) in fm**2, nuclear magnetic moments (NMagM)
  in nuclear magnetons)

  Atom         1           2           3           4           5           6           7           8           9          10
 IAtWgt=          79          16           1           1          16           1           1          16           1           1
 AtmWgt=  78.9183361  15.9949146   1.0078250   1.0078250  15.9949146   1.0078250   1.0078250  15.9949146   1.0078250   1.0078250
 NucSpn=           3           0           1           1           0           1           1           0           1           1
 AtZEff=   0.0000000   0.0000000   0.0000000   0.0000000   0.0000000   0.0000000   0.0000000   0.0000000   0.0000000   0.0000000
 NQMom=   31.3000000   0.0000000   0.0000000   0.0000000   0.0000000   0.0000000   0.0000000   0.0000000   0.0000000   0.0000000
 NMagM=    2.1063990   0.0000000   2.7928460   2.7928460   0.0000000   2.7928460   2.7928460   0.0000000   2.7928460   2.7928460
 AtZNuc=  35.0000000   8.0000000   1.0000000   1.0000000   8.0000000   1.0000000   1.0000000   8.0000000   1.0000000   1.0000000

  Atom        11          12          13          14          15          16          17          18          19          20
 IAtWgt=          16           1           1          16           1           1          16           1           1          16
 AtmWgt=  15.9949146   1.0078250   1.0078250  15.9949146   1.0078250   1.0078250  15.9949146   1.0078250   1.0078250  15.9949146
 NucSpn=           0           1           1           0           1           1           0           1           1           0
 AtZEff=   0.0000000   0.0000000   0.0000000   0.0000000   0.0000000   0.0000000   0.0000000   0.0000000   0.0000000   0.0000000
 NQMom=    0.0000000   0.0000000   0.0000000   0.0000000   0.0000000   0.0000000   0.0000000   0.0000000   0.0000000   0.0000000
 NMagM=    0.0000000   2.7928460   2.7928460   0.0000000   2.7928460   2.7928460   0.0000000   2.7928460   2.7928460   0.0000000
 AtZNuc=   8.0000000   1.0000000   1.0000000   8.0000000   1.0000000   1.0000000   8.0000000   1.0000000   1.0000000   8.0000000

  Atom        21          22          23          24          25          26          27          28          29          30
 IAtWgt=           1           1          16           1           1          16           1           1          16           1
 AtmWgt=   1.0078250   1.0078250  15.9949146   1.0078250   1.0078250  15.9949146   1.0078250   1.0078250  15.9949146   1.0078250
 NucSpn=           1           1           0           1           1           0           1           1           0           1
 AtZEff=   0.0000000   0.0000000   0.0000000   0.0000000   0.0000000   0.0000000   0.0000000   0.0000000   0.0000000   0.0000000
 NQMom=    0.0000000   0.0000000   0.0000000   0.0000000   0.0000000   0.0000000   0.0000000   0.0000000   0.0000000   0.0000000
 NMagM=    2.7928460   2.7928460   0.0000000   2.7928460   2.7928460   0.0000000   2.7928460   2.7928460   0.0000000   2.7928460
 AtZNuc=   1.0000000   1.0000000   8.0000000   1.0000000   1.0000000   8.0000000   1.0000000   1.0000000   8.0000000   1.0000000

  Atom        31          32          33          34          35          36          37          38          39          40
 IAtWgt=           1          16           1           1          16           1           1          16           1           1
 AtmWgt=   1.0078250  15.9949146   1.0078250   1.0078250  15.9949146   1.0078250   1.0078250  15.9949146   1.0078250   1.0078250
 NucSpn=           1           0           1           1           0           1           1           0           1           1
 AtZEff=   0.0000000   0.0000000   0.0000000   0.0000000   0.0000000   0.0000000   0.0000000   0.0000000   0.0000000   0.0000000
 NQMom=    0.0000000   0.0000000   0.0000000   0.0000000   0.0000000   0.0000000   0.0000000   0.0000000   0.0000000   0.0000000
 NMagM=    2.7928460   0.0000000   2.7928460   2.7928460   0.0000000   2.7928460   2.7928460   0.0000000   2.7928460   2.7928460
 AtZNuc=   1.0000000   8.0000000   1.0000000   1.0000000   8.0000000   1.0000000   1.0000000   8.0000000   1.0000000   1.0000000

  Atom        41          42          43          44          45          46          47          48          49          50
 IAtWgt=          16           1           1          16           1           1          16           1           1          16
 AtmWgt=  15.9949146   1.0078250   1.0078250  15.9949146   1.0078250   1.0078250  15.9949146   1.0078250   1.0078250  15.9949146
 NucSpn=           0           1           1           0           1           1           0           1           1           0
 AtZEff=   0.0000000   0.0000000   0.0000000   0.0000000   0.0000000   0.0000000   0.0000000   0.0000000   0.0000000   0.0000000
 NQMom=    0.0000000   0.0000000   0.0000000   0.0000000   0.0000000   0.0000000   0.0000000   0.0000000   0.0000000   0.0000000
 NMagM=    0.0000000   2.7928460   2.7928460   0.0000000   2.7928460   2.7928460   0.0000000   2.7928460   2.7928460   0.0000000
 AtZNuc=   8.0000000   1.0000000   1.0000000   8.0000000   1.0000000   1.0000000   8.0000000   1.0000000   1.0000000   8.0000000

  Atom        51          52          53          54          55          56          57          58          59          60
 IAtWgt=           1           1          16           1           1          16           1           1          16           1
 AtmWgt=   1.0078250   1.0078250  15.9949146   1.0078250   1.0078250  15.9949146   1.0078250   1.0078250  15.9949146   1.0078250
 NucSpn=           1           1           0           1           1           0           1           1           0           1
 AtZEff=   0.0000000   0.0000000   0.0000000   0.0000000   0.0000000   0.0000000   0.0000000   0.0000000   0.0000000   0.0000000
 NQMom=    0.0000000   0.0000000   0.0000000   0.0000000   0.0000000   0.0000000   0.0000000   0.0000000   0.0000000   0.0000000
 NMagM=    2.7928460   2.7928460   0.0000000   2.7928460   2.7928460   0.0000000   2.7928460   2.7928460   0.0000000   2.7928460
 AtZNuc=   1.0000000   1.0000000   8.0000000   1.0000000   1.0000000   8.0000000   1.0000000   1.0000000   8.0000000   1.0000000

  Atom        61          62          63          64          65          66          67          68          69          70
 IAtWgt=           1          16           1           1          16           1           1          16           1           1
 AtmWgt=   1.0078250  15.9949146   1.0078250   1.0078250  15.9949146   1.0078250   1.0078250  15.9949146   1.0078250   1.0078250
 NucSpn=           1           0           1           1           0           1           1           0           1           1
 AtZEff=   0.0000000   0.0000000   0.0000000   0.0000000   0.0000000   0.0000000   0.0000000   0.0000000   0.0000000   0.0000000
 NQMom=    0.0000000   0.0000000   0.0000000   0.0000000   0.0000000   0.0000000   0.0000000   0.0000000   0.0000000   0.0000000
 NMagM=    2.7928460   0.0000000   2.7928460   2.7928460   0.0000000   2.7928460   2.7928460   0.0000000   2.7928460   2.7928460
 AtZNuc=   1.0000000   8.0000000   1.0000000   1.0000000   8.0000000   1.0000000   1.0000000   8.0000000   1.0000000   1.0000000

  Atom        71          72          73          74          75          76          77          78          79          80
 IAtWgt=          16           1           1          16           1           1          16           1           1          16
 AtmWgt=  15.9949146   1.0078250   1.0078250  15.9949146   1.0078250   1.0078250  15.9949146   1.0078250   1.0078250  15.9949146
 NucSpn=           0           1           1           0           1           1           0           1           1           0
 AtZEff=   0.0000000   0.0000000   0.0000000   0.0000000   0.0000000   0.0000000   0.0000000   0.0000000   0.0000000   0.0000000
 NQMom=    0.0000000   0.0000000   0.0000000   0.0000000   0.0000000   0.0000000   0.0000000   0.0000000   0.0000000   0.0000000
 NMagM=    0.0000000   2.7928460   2.7928460   0.0000000   2.7928460   2.7928460   0.0000000   2.7928460   2.7928460   0.0000000
 AtZNuc=   8.0000000   1.0000000   1.0000000   8.0000000   1.0000000   1.0000000   8.0000000   1.0000000   1.0000000   8.0000000

  Atom        81          82          83          84          85          86          87          88          89          90
 IAtWgt=           1           1          16           1           1          16           1           1          16           1
 AtmWgt=   1.0078250   1.0078250  15.9949146   1.0078250   1.0078250  15.9949146   1.0078250   1.0078250  15.9949146   1.0078250
 NucSpn=           1           1           0           1           1           0           1           1           0           1
 AtZEff=   0.0000000   0.0000000   0.0000000   0.0000000   0.0000000   0.0000000   0.0000000   0.0000000   0.0000000   0.0000000
 NQMom=    0.0000000   0.0000000   0.0000000   0.0000000   0.0000000   0.0000000   0.0000000   0.0000000   0.0000000   0.0000000
 NMagM=    2.7928460   2.7928460   0.0000000   2.7928460   2.7928460   0.0000000   2.7928460   2.7928460   0.0000000   2.7928460
 AtZNuc=   1.0000000   1.0000000   8.0000000   1.0000000   1.0000000   8.0000000   1.0000000   1.0000000   8.0000000   1.0000000

  Atom        91          92          93          94          95          96          97          98          99         100
 IAtWgt=           1          16           1           1          16           1           1          16           1           1
 AtmWgt=   1.0078250  15.9949146   1.0078250   1.0078250  15.9949146   1.0078250   1.0078250  15.9949146   1.0078250   1.0078250
 NucSpn=           1           0           1           1           0           1           1           0           1           1
 AtZEff=   0.0000000   0.0000000   0.0000000   0.0000000   0.0000000   0.0000000   0.0000000   0.0000000   0.0000000   0.0000000
 NQMom=    0.0000000   0.0000000   0.0000000   0.0000000   0.0000000   0.0000000   0.0000000   0.0000000   0.0000000   0.0000000
 NMagM=    2.7928460   0.0000000   2.7928460   2.7928460   0.0000000   2.7928460   2.7928460   0.0000000   2.7928460   2.7928460
 AtZNuc=   1.0000000   8.0000000   1.0000000   1.0000000   8.0000000   1.0000000   1.0000000   8.0000000   1.0000000   1.0000000

  Atom       101         102         103         104         105         106         107         108         109         110
 IAtWgt=          16           1           1          16           1           1          16           1           1          16
 AtmWgt=  15.9949146   1.0078250   1.0078250  15.9949146   1.0078250   1.0078250  15.9949146   1.0078250   1.0078250  15.9949146
 NucSpn=           0           1           1           0           1           1           0           1           1           0
 AtZEff=   0.0000000   0.0000000   0.0000000   0.0000000   0.0000000   0.0000000   0.0000000   0.0000000   0.0000000   0.0000000
 NQMom=    0.0000000   0.0000000   0.0000000   0.0000000   0.0000000   0.0000000   0.0000000   0.0000000   0.0000000   0.0000000
 NMagM=    0.0000000   2.7928460   2.7928460   0.0000000   2.7928460   2.7928460   0.0000000   2.7928460   2.7928460   0.0000000
 AtZNuc=   8.0000000   1.0000000   1.0000000   8.0000000   1.0000000   1.0000000   8.0000000   1.0000000   1.0000000   8.0000000

  Atom       111         112         113         114         115         116         117         118         119         120
 IAtWgt=           1           1          16           1           1          16           1           1          16           1
 AtmWgt=   1.0078250   1.0078250  15.9949146   1.0078250   1.0078250  15.9949146   1.0078250   1.0078250  15.9949146   1.0078250
 NucSpn=           1           1           0           1           1           0           1           1           0           1
 AtZEff=   0.0000000   0.0000000   0.0000000   0.0000000   0.0000000   0.0000000   0.0000000   0.0000000   0.0000000   0.0000000
 NQMom=    0.0000000   0.0000000   0.0000000   0.0000000   0.0000000   0.0000000   0.0000000   0.0000000   0.0000000   0.0000000
 NMagM=    2.7928460   2.7928460   0.0000000   2.7928460   2.7928460   0.0000000   2.7928460   2.7928460   0.0000000   2.7928460
 AtZNuc=   1.0000000   1.0000000   8.0000000   1.0000000   1.0000000   8.0000000   1.0000000   1.0000000   8.0000000   1.0000000

  Atom       121         122         123         124         125         126         127         128         129         130
 IAtWgt=           1          16           1           1          16           1           1          16           1           1
 AtmWgt=   1.0078250  15.9949146   1.0078250   1.0078250  15.9949146   1.0078250   1.0078250  15.9949146   1.0078250   1.0078250
 NucSpn=           1           0           1           1           0           1           1           0           1           1
 AtZEff=   0.0000000   0.0000000   0.0000000   0.0000000   0.0000000   0.0000000   0.0000000   0.0000000   0.0000000   0.0000000
 NQMom=    0.0000000   0.0000000   0.0000000   0.0000000   0.0000000   0.0000000   0.0000000   0.0000000   0.0000000   0.0000000
 NMagM=    2.7928460   0.0000000   2.7928460   2.7928460   0.0000000   2.7928460   2.7928460   0.0000000   2.7928460   2.7928460
 AtZNuc=   1.0000000   8.0000000   1.0000000   1.0000000   8.0000000   1.0000000   1.0000000   8.0000000   1.0000000   1.0000000

  Atom       131         132         133         134         135         136         137         138         139         140
 IAtWgt=          16           1           1          16           1           1          16           1           1          16
 AtmWgt=  15.9949146   1.0078250   1.0078250  15.9949146   1.0078250   1.0078250  15.9949146   1.0078250   1.0078250  15.9949146
 NucSpn=           0           1           1           0           1           1           0           1           1           0
 AtZEff=   0.0000000   0.0000000   0.0000000   0.0000000   0.0000000   0.0000000   0.0000000   0.0000000   0.0000000   0.0000000
 NQMom=    0.0000000   0.0000000   0.0000000   0.0000000   0.0000000   0.0000000   0.0000000   0.0000000   0.0000000   0.0000000
 NMagM=    0.0000000   2.7928460   2.7928460   0.0000000   2.7928460   2.7928460   0.0000000   2.7928460   2.7928460   0.0000000
 AtZNuc=   8.0000000   1.0000000   1.0000000   8.0000000   1.0000000   1.0000000   8.0000000   1.0000000   1.0000000   8.0000000

  Atom       141         142         143         144         145         146         147         148         149         150
 IAtWgt=           1           1          16           1           1          16           1           1          16           1
 AtmWgt=   1.0078250   1.0078250  15.9949146   1.0078250   1.0078250  15.9949146   1.0078250   1.0078250  15.9949146   1.0078250
 NucSpn=           1           1           0           1           1           0           1           1           0           1
 AtZEff=   0.0000000   0.0000000   0.0000000   0.0000000   0.0000000   0.0000000   0.0000000   0.0000000   0.0000000   0.0000000
 NQMom=    0.0000000   0.0000000   0.0000000   0.0000000   0.0000000   0.0000000   0.0000000   0.0000000   0.0000000   0.0000000
 NMagM=    2.7928460   2.7928460   0.0000000   2.7928460   2.7928460   0.0000000   2.7928460   2.7928460   0.0000000   2.7928460
 AtZNuc=   1.0000000   1.0000000   8.0000000   1.0000000   1.0000000   8.0000000   1.0000000   1.0000000   8.0000000   1.0000000

  Atom       151         152         153         154         155         156         157         158         159         160
 IAtWgt=           1          16           1           1          16           1           1          16           1           1
 AtmWgt=   1.0078250  15.9949146   1.0078250   1.0078250  15.9949146   1.0078250   1.0078250  15.9949146   1.0078250   1.0078250
 NucSpn=           1           0           1           1           0           1           1           0           1           1
 AtZEff=   0.0000000   0.0000000   0.0000000   0.0000000   0.0000000   0.0000000   0.0000000   0.0000000   0.0000000   0.0000000
 NQMom=    0.0000000   0.0000000   0.0000000   0.0000000   0.0000000   0.0000000   0.0000000   0.0000000   0.0000000   0.0000000
 NMagM=    2.7928460   0.0000000   2.7928460   2.7928460   0.0000000   2.7928460   2.7928460   0.0000000   2.7928460   2.7928460
 AtZNuc=   1.0000000   8.0000000   1.0000000   1.0000000   8.0000000   1.0000000   1.0000000   8.0000000   1.0000000   1.0000000

  Atom       161         162         163         164         165         166         167         168         169         170
 IAtWgt=          16           1           1          16           1           1          16           1           1          16
 AtmWgt=  15.9949146   1.0078250   1.0078250  15.9949146   1.0078250   1.0078250  15.9949146   1.0078250   1.0078250  15.9949146
 NucSpn=           0           1           1           0           1           1           0           1           1           0
 AtZEff=   0.0000000   0.0000000   0.0000000   0.0000000   0.0000000   0.0000000   0.0000000   0.0000000   0.0000000   0.0000000
 NQMom=    0.0000000   0.0000000   0.0000000   0.0000000   0.0000000   0.0000000   0.0000000   0.0000000   0.0000000   0.0000000
 NMagM=    0.0000000   2.7928460   2.7928460   0.0000000   2.7928460   2.7928460   0.0000000   2.7928460   2.7928460   0.0000000
 AtZNuc=   8.0000000   1.0000000   1.0000000   8.0000000   1.0000000   1.0000000   8.0000000   1.0000000   1.0000000   8.0000000

  Atom       171         172         173         174         175         176         177         178         179         180
 IAtWgt=           1           1          16           1           1          16           1           1          16           1
 AtmWgt=   1.0078250   1.0078250  15.9949146   1.0078250   1.0078250  15.9949146   1.0078250   1.0078250  15.9949146   1.0078250
 NucSpn=           1           1           0           1           1           0           1           1           0           1
 AtZEff=   0.0000000   0.0000000   0.0000000   0.0000000   0.0000000   0.0000000   0.0000000   0.0000000   0.0000000   0.0000000
 NQMom=    0.0000000   0.0000000   0.0000000   0.0000000   0.0000000   0.0000000   0.0000000   0.0000000   0.0000000   0.0000000
 NMagM=    2.7928460   2.7928460   0.0000000   2.7928460   2.7928460   0.0000000   2.7928460   2.7928460   0.0000000   2.7928460
 AtZNuc=   1.0000000   1.0000000   8.0000000   1.0000000   1.0000000   8.0000000   1.0000000   1.0000000   8.0000000   1.0000000

  Atom       181         182         183         184         185         186         187         188         189         190
 IAtWgt=           1          16           1           1          16           1           1          16           1           1
 AtmWgt=   1.0078250  15.9949146   1.0078250   1.0078250  15.9949146   1.0078250   1.0078250  15.9949146   1.0078250   1.0078250
 NucSpn=           1           0           1           1           0           1           1           0           1           1
 AtZEff=   0.0000000   0.0000000   0.0000000   0.0000000   0.0000000   0.0000000   0.0000000   0.0000000   0.0000000   0.0000000
 NQMom=    0.0000000   0.0000000   0.0000000   0.0000000   0.0000000   0.0000000   0.0000000   0.0000000   0.0000000   0.0000000
 NMagM=    2.7928460   0.0000000   2.7928460   2.7928460   0.0000000   2.7928460   2.7928460   0.0000000   2.7928460   2.7928460
 AtZNuc=   1.0000000   8.0000000   1.0000000   1.0000000   8.0000000   1.0000000   1.0000000   8.0000000   1.0000000   1.0000000

  Atom       191         192         193         194         195         196         197         198         199         200
 IAtWgt=          16           1           1          16           1           1          16           1           1          16
 AtmWgt=  15.9949146   1.0078250   1.0078250  15.9949146   1.0078250   1.0078250  15.9949146   1.0078250   1.0078250  15.9949146
 NucSpn=           0           1           1           0           1           1           0           1           1           0
 AtZEff=   0.0000000   0.0000000   0.0000000   0.0000000   0.0000000   0.0000000   0.0000000   0.0000000   0.0000000   0.0000000
 NQMom=    0.0000000   0.0000000   0.0000000   0.0000000   0.0000000   0.0000000   0.0000000   0.0000000   0.0000000   0.0000000
 NMagM=    0.0000000   2.7928460   2.7928460   0.0000000   2.7928460   2.7928460   0.0000000   2.7928460   2.7928460   0.0000000
 AtZNuc=   8.0000000   1.0000000   1.0000000   8.0000000   1.0000000   1.0000000   8.0000000   1.0000000   1.0000000   8.0000000

  Atom       201         202         203         204         205         206         207         208         209         210
 IAtWgt=           1           1          16           1           1          16           1           1          16           1
 AtmWgt=   1.0078250   1.0078250  15.9949146   1.0078250   1.0078250  15.9949146   1.0078250   1.0078250  15.9949146   1.0078250
 NucSpn=           1           1           0           1           1           0           1           1           0           1
 AtZEff=   0.0000000   0.0000000   0.0000000   0.0000000   0.0000000   0.0000000   0.0000000   0.0000000   0.0000000   0.0000000
 NQMom=    0.0000000   0.0000000   0.0000000   0.0000000   0.0000000   0.0000000   0.0000000   0.0000000   0.0000000   0.0000000
 NMagM=    2.7928460   2.7928460   0.0000000   2.7928460   2.7928460   0.0000000   2.7928460   2.7928460   0.0000000   2.7928460
 AtZNuc=   1.0000000   1.0000000   8.0000000   1.0000000   1.0000000   8.0000000   1.0000000   1.0000000   8.0000000   1.0000000

  Atom       211         212         213         214         215         216         217         218         219         220
 IAtWgt=           1          16           1           1          16           1           1          16           1           1
 AtmWgt=   1.0078250  15.9949146   1.0078250   1.0078250  15.9949146   1.0078250   1.0078250  15.9949146   1.0078250   1.0078250
 NucSpn=           1           0           1           1           0           1           1           0           1           1
 AtZEff=   0.0000000   0.0000000   0.0000000   0.0000000   0.0000000   0.0000000   0.0000000   0.0000000   0.0000000   0.0000000
 NQMom=    0.0000000   0.0000000   0.0000000   0.0000000   0.0000000   0.0000000   0.0000000   0.0000000   0.0000000   0.0000000
 NMagM=    2.7928460   0.0000000   2.7928460   2.7928460   0.0000000   2.7928460   2.7928460   0.0000000   2.7928460   2.7928460
 AtZNuc=   1.0000000   8.0000000   1.0000000   1.0000000   8.0000000   1.0000000   1.0000000   8.0000000   1.0000000   1.0000000

  Atom       221         222         223         224         225         226         227         228         229         230
 IAtWgt=          16           1           1          16           1           1          16           1           1          16
 AtmWgt=  15.9949146   1.0078250   1.0078250  15.9949146   1.0078250   1.0078250  15.9949146   1.0078250   1.0078250  15.9949146
 NucSpn=           0           1           1           0           1           1           0           1           1           0
 AtZEff=   0.0000000   0.0000000   0.0000000   0.0000000   0.0000000   0.0000000   0.0000000   0.0000000   0.0000000   0.0000000
 NQMom=    0.0000000   0.0000000   0.0000000   0.0000000   0.0000000   0.0000000   0.0000000   0.0000000   0.0000000   0.0000000
 NMagM=    0.0000000   2.7928460   2.7928460   0.0000000   2.7928460   2.7928460   0.0000000   2.7928460   2.7928460   0.0000000
 AtZNuc=   8.0000000   1.0000000   1.0000000   8.0000000   1.0000000   1.0000000   8.0000000   1.0000000   1.0000000   8.0000000

  Atom       231         232         233         234         235         236         237         238         239         240
 IAtWgt=           1           1          16           1           1          16           1           1          16           1
 AtmWgt=   1.0078250   1.0078250  15.9949146   1.0078250   1.0078250  15.9949146   1.0078250   1.0078250  15.9949146   1.0078250
 NucSpn=           1           1           0           1           1           0           1           1           0           1
 AtZEff=   0.0000000   0.0000000   0.0000000   0.0000000   0.0000000   0.0000000   0.0000000   0.0000000   0.0000000   0.0000000
 NQMom=    0.0000000   0.0000000   0.0000000   0.0000000   0.0000000   0.0000000   0.0000000   0.0000000   0.0000000   0.0000000
 NMagM=    2.7928460   2.7928460   0.0000000   2.7928460   2.7928460   0.0000000   2.7928460   2.7928460   0.0000000   2.7928460
 AtZNuc=   1.0000000   1.0000000   8.0000000   1.0000000   1.0000000   8.0000000   1.0000000   1.0000000   8.0000000   1.0000000

  Atom       241         242         243         244         245         246         247         248         249         250
 IAtWgt=           1          16           1           1          16           1           1          16           1           1
 AtmWgt=   1.0078250  15.9949146   1.0078250   1.0078250  15.9949146   1.0078250   1.0078250  15.9949146   1.0078250   1.0078250
 NucSpn=           1           0           1           1           0           1           1           0           1           1
 AtZEff=   0.0000000   0.0000000   0.0000000   0.0000000   0.0000000   0.0000000   0.0000000   0.0000000   0.0000000   0.0000000
 NQMom=    0.0000000   0.0000000   0.0000000   0.0000000   0.0000000   0.0000000   0.0000000   0.0000000   0.0000000   0.0000000
 NMagM=    2.7928460   0.0000000   2.7928460   2.7928460   0.0000000   2.7928460   2.7928460   0.0000000   2.7928460   2.7928460
 AtZNuc=   1.0000000   8.0000000   1.0000000   1.0000000   8.0000000   1.0000000   1.0000000   8.0000000   1.0000000   1.0000000

  Atom       251         252         253         254         255         256         257         258         259         260
 IAtWgt=          16           1           1          16           1           1          16           1           1          16
 AtmWgt=  15.9949146   1.0078250   1.0078250  15.9949146   1.0078250   1.0078250  15.9949146   1.0078250   1.0078250  15.9949146
 NucSpn=           0           1           1           0           1           1           0           1           1           0
 AtZEff=   0.0000000   0.0000000   0.0000000   0.0000000   0.0000000   0.0000000   0.0000000   0.0000000   0.0000000   0.0000000
 NQMom=    0.0000000   0.0000000   0.0000000   0.0000000   0.0000000   0.0000000   0.0000000   0.0000000   0.0000000   0.0000000
 NMagM=    0.0000000   2.7928460   2.7928460   0.0000000   2.7928460   2.7928460   0.0000000   2.7928460   2.7928460   0.0000000
 AtZNuc=   8.0000000   1.0000000   1.0000000   8.0000000   1.0000000   1.0000000   8.0000000   1.0000000   1.0000000   8.0000000

  Atom       261         262         263         264         265         266         267         268         269         270
 IAtWgt=           1           1          16           1           1          16           1           1          16           1
 AtmWgt=   1.0078250   1.0078250  15.9949146   1.0078250   1.0078250  15.9949146   1.0078250   1.0078250  15.9949146   1.0078250
 NucSpn=           1           1           0           1           1           0           1           1           0           1
 AtZEff=   0.0000000   0.0000000   0.0000000   0.0000000   0.0000000   0.0000000   0.0000000   0.0000000   0.0000000   0.0000000
 NQMom=    0.0000000   0.0000000   0.0000000   0.0000000   0.0000000   0.0000000   0.0000000   0.0000000   0.0000000   0.0000000
 NMagM=    2.7928460   2.7928460   0.0000000   2.7928460   2.7928460   0.0000000   2.7928460   2.7928460   0.0000000   2.7928460
 AtZNuc=   1.0000000   1.0000000   8.0000000   1.0000000   1.0000000   8.0000000   1.0000000   1.0000000   8.0000000   1.0000000

  Atom       271         272         273         274         275         276         277         278         279         280
 IAtWgt=           1          16           1           1          16           1           1          16           1           1
 AtmWgt=   1.0078250  15.9949146   1.0078250   1.0078250  15.9949146   1.0078250   1.0078250  15.9949146   1.0078250   1.0078250
 NucSpn=           1           0           1           1           0           1           1           0           1           1
 AtZEff=   0.0000000   0.0000000   0.0000000   0.0000000   0.0000000   0.0000000   0.0000000   0.0000000   0.0000000   0.0000000
 NQMom=    0.0000000   0.0000000   0.0000000   0.0000000   0.0000000   0.0000000   0.0000000   0.0000000   0.0000000   0.0000000
 NMagM=    2.7928460   0.0000000   2.7928460   2.7928460   0.0000000   2.7928460   2.7928460   0.0000000   2.7928460   2.7928460
 AtZNuc=   1.0000000   8.0000000   1.0000000   1.0000000   8.0000000   1.0000000   1.0000000   8.0000000   1.0000000   1.0000000

  Atom       281         282         283         284         285         286         287         288         289         290
 IAtWgt=          16           1           1          16           1           1          16           1           1          16
 AtmWgt=  15.9949146   1.0078250   1.0078250  15.9949146   1.0078250   1.0078250  15.9949146   1.0078250   1.0078250  15.9949146
 NucSpn=           0           1           1           0           1           1           0           1           1           0
 AtZEff=   0.0000000   0.0000000   0.0000000   0.0000000   0.0000000   0.0000000   0.0000000   0.0000000   0.0000000   0.0000000
 NQMom=    0.0000000   0.0000000   0.0000000   0.0000000   0.0000000   0.0000000   0.0000000   0.0000000   0.0000000   0.0000000
 NMagM=    0.0000000   2.7928460   2.7928460   0.0000000   2.7928460   2.7928460   0.0000000   2.7928460   2.7928460   0.0000000
 AtZNuc=   8.0000000   1.0000000   1.0000000   8.0000000   1.0000000   1.0000000   8.0000000   1.0000000   1.0000000   8.0000000

  Atom       291         292         293         294         295         296         297         298         299         300
 IAtWgt=           1           1          16           1           1          16           1           1          16           1
 AtmWgt=   1.0078250   1.0078250  15.9949146   1.0078250   1.0078250  15.9949146   1.0078250   1.0078250  15.9949146   1.0078250
 NucSpn=           1           1           0           1           1           0           1           1           0           1
 AtZEff=   0.0000000   0.0000000   0.0000000   0.0000000   0.0000000   0.0000000   0.0000000   0.0000000   0.0000000   0.0000000
 NQMom=    0.0000000   0.0000000   0.0000000   0.0000000   0.0000000   0.0000000   0.0000000   0.0000000   0.0000000   0.0000000
 NMagM=    2.7928460   2.7928460   0.0000000   2.7928460   2.7928460   0.0000000   2.7928460   2.7928460   0.0000000   2.7928460
 AtZNuc=   1.0000000   1.0000000   8.0000000   1.0000000   1.0000000   8.0000000   1.0000000   1.0000000   8.0000000   1.0000000

  Atom       301         302         303         304         305         306         307         308         309         310
 IAtWgt=           1          16           1           1          16           1           1          16           1           1
 AtmWgt=   1.0078250  15.9949146   1.0078250   1.0078250  15.9949146   1.0078250   1.0078250  15.9949146   1.0078250   1.0078250
 NucSpn=           1           0           1           1           0           1           1           0           1           1
 AtZEff=   0.0000000   0.0000000   0.0000000   0.0000000   0.0000000   0.0000000   0.0000000   0.0000000   0.0000000   0.0000000
 NQMom=    0.0000000   0.0000000   0.0000000   0.0000000   0.0000000   0.0000000   0.0000000   0.0000000   0.0000000   0.0000000
 NMagM=    2.7928460   0.0000000   2.7928460   2.7928460   0.0000000   2.7928460   2.7928460   0.0000000   2.7928460   2.7928460
 AtZNuc=   1.0000000   8.0000000   1.0000000   1.0000000   8.0000000   1.0000000   1.0000000   8.0000000   1.0000000   1.0000000

  Atom       311         312         313         314         315         316         317         318         319         320
 IAtWgt=          16           1           1          16           1           1          16           1           1          16
 AtmWgt=  15.9949146   1.0078250   1.0078250  15.9949146   1.0078250   1.0078250  15.9949146   1.0078250   1.0078250  15.9949146
 NucSpn=           0           1           1           0           1           1           0           1           1           0
 AtZEff=   0.0000000   0.0000000   0.0000000   0.0000000   0.0000000   0.0000000   0.0000000   0.0000000   0.0000000   0.0000000
 NQMom=    0.0000000   0.0000000   0.0000000   0.0000000   0.0000000   0.0000000   0.0000000   0.0000000   0.0000000   0.0000000
 NMagM=    0.0000000   2.7928460   2.7928460   0.0000000   2.7928460   2.7928460   0.0000000   2.7928460   2.7928460   0.0000000
 AtZNuc=   8.0000000   1.0000000   1.0000000   8.0000000   1.0000000   1.0000000   8.0000000   1.0000000   1.0000000   8.0000000

  Atom       321         322         323         324         325         326         327         328         329         330
 IAtWgt=           1           1          16           1           1          16           1           1          16           1
 AtmWgt=   1.0078250   1.0078250  15.9949146   1.0078250   1.0078250  15.9949146   1.0078250   1.0078250  15.9949146   1.0078250
 NucSpn=           1           1           0           1           1           0           1           1           0           1
 AtZEff=   0.0000000   0.0000000   0.0000000   0.0000000   0.0000000   0.0000000   0.0000000   0.0000000   0.0000000   0.0000000
 NQMom=    0.0000000   0.0000000   0.0000000   0.0000000   0.0000000   0.0000000   0.0000000   0.0000000   0.0000000   0.0000000
 NMagM=    2.7928460   2.7928460   0.0000000   2.7928460   2.7928460   0.0000000   2.7928460   2.7928460   0.0000000   2.7928460
 AtZNuc=   1.0000000   1.0000000   8.0000000   1.0000000   1.0000000   8.0000000   1.0000000   1.0000000   8.0000000   1.0000000

  Atom       331         332         333         334         335         336         337         338         339         340
 IAtWgt=           1          16           1           1          16           1           1          16           1           1
 AtmWgt=   1.0078250  15.9949146   1.0078250   1.0078250  15.9949146   1.0078250   1.0078250  15.9949146   1.0078250   1.0078250
 NucSpn=           1           0           1           1           0           1           1           0           1           1
 AtZEff=   0.0000000   0.0000000   0.0000000   0.0000000   0.0000000   0.0000000   0.0000000   0.0000000   0.0000000   0.0000000
 NQMom=    0.0000000   0.0000000   0.0000000   0.0000000   0.0000000   0.0000000   0.0000000   0.0000000   0.0000000   0.0000000
 NMagM=    2.7928460   0.0000000   2.7928460   2.7928460   0.0000000   2.7928460   2.7928460   0.0000000   2.7928460   2.7928460
 AtZNuc=   1.0000000   8.0000000   1.0000000   1.0000000   8.0000000   1.0000000   1.0000000   8.0000000   1.0000000   1.0000000

  Atom       341         342         343         344         345         346         347         348         349         350
 IAtWgt=          16           1           1          16           1           1          16           1           1          16
 AtmWgt=  15.9949146   1.0078250   1.0078250  15.9949146   1.0078250   1.0078250  15.9949146   1.0078250   1.0078250  15.9949146
 NucSpn=           0           1           1           0           1           1           0           1           1           0
 AtZEff=   0.0000000   0.0000000   0.0000000   0.0000000   0.0000000   0.0000000   0.0000000   0.0000000   0.0000000   0.0000000
 NQMom=    0.0000000   0.0000000   0.0000000   0.0000000   0.0000000   0.0000000   0.0000000   0.0000000   0.0000000   0.0000000
 NMagM=    0.0000000   2.7928460   2.7928460   0.0000000   2.7928460   2.7928460   0.0000000   2.7928460   2.7928460   0.0000000
 AtZNuc=   8.0000000   1.0000000   1.0000000   8.0000000   1.0000000   1.0000000   8.0000000   1.0000000   1.0000000   8.0000000

  Atom       351         352         353         354         355         356         357         358         359         360
 IAtWgt=           1           1          16           1           1          16           1           1          16           1
 AtmWgt=   1.0078250   1.0078250  15.9949146   1.0078250   1.0078250  15.9949146   1.0078250   1.0078250  15.9949146   1.0078250
 NucSpn=           1           1           0           1           1           0           1           1           0           1
 AtZEff=   0.0000000   0.0000000   0.0000000   0.0000000   0.0000000   0.0000000   0.0000000   0.0000000   0.0000000   0.0000000
 NQMom=    0.0000000   0.0000000   0.0000000   0.0000000   0.0000000   0.0000000   0.0000000   0.0000000   0.0000000   0.0000000
 NMagM=    2.7928460   2.7928460   0.0000000   2.7928460   2.7928460   0.0000000   2.7928460   2.7928460   0.0000000   2.7928460
 AtZNuc=   1.0000000   1.0000000   8.0000000   1.0000000   1.0000000   8.0000000   1.0000000   1.0000000   8.0000000   1.0000000

  Atom       361         362         363         364         365         366         367         368         369         370
 IAtWgt=           1          16           1           1          16           1           1          16           1           1
 AtmWgt=   1.0078250  15.9949146   1.0078250   1.0078250  15.9949146   1.0078250   1.0078250  15.9949146   1.0078250   1.0078250
 NucSpn=           1           0           1           1           0           1           1           0           1           1
 AtZEff=   0.0000000   0.0000000   0.0000000   0.0000000   0.0000000   0.0000000   0.0000000   0.0000000   0.0000000   0.0000000
 NQMom=    0.0000000   0.0000000   0.0000000   0.0000000   0.0000000   0.0000000   0.0000000   0.0000000   0.0000000   0.0000000
 NMagM=    2.7928460   0.0000000   2.7928460   2.7928460   0.0000000   2.7928460   2.7928460   0.0000000   2.7928460   2.7928460
 AtZNuc=   1.0000000   8.0000000   1.0000000   1.0000000   8.0000000   1.0000000   1.0000000   8.0000000   1.0000000   1.0000000

  Atom       371         372         373         374         375         376         377         378         379         380
 IAtWgt=          16           1           1          16           1           1          16           1           1          16
 AtmWgt=  15.9949146   1.0078250   1.0078250  15.9949146   1.0078250   1.0078250  15.9949146   1.0078250   1.0078250  15.9949146
 NucSpn=           0           1           1           0           1           1           0           1           1           0
 AtZEff=   0.0000000   0.0000000   0.0000000   0.0000000   0.0000000   0.0000000   0.0000000   0.0000000   0.0000000   0.0000000
 NQMom=    0.0000000   0.0000000   0.0000000   0.0000000   0.0000000   0.0000000   0.0000000   0.0000000   0.0000000   0.0000000
 NMagM=    0.0000000   2.7928460   2.7928460   0.0000000   2.7928460   2.7928460   0.0000000   2.7928460   2.7928460   0.0000000
 AtZNuc=   8.0000000   1.0000000   1.0000000   8.0000000   1.0000000   1.0000000   8.0000000   1.0000000   1.0000000   8.0000000

  Atom       381         382         383         384         385
 IAtWgt=           1           1          16           1           1
 AtmWgt=   1.0078250   1.0078250  15.9949146   1.0078250   1.0078250
 NucSpn=           1           1           0           1           1
 AtZEff=   0.0000000   0.0000000   0.0000000   0.0000000   0.0000000
 NQMom=    0.0000000   0.0000000   0.0000000   0.0000000   0.0000000
 NMagM=    2.7928460   2.7928460   0.0000000   2.7928460   2.7928460
 AtZNuc=   1.0000000   1.0000000   8.0000000   1.0000000   1.0000000
 Leave Link  101 at Sat May  5 07:57:33 2018, MaxMem= 14763950080 cpu:        33.2
 (Enter /cm/shared/gaussian/g09.e01/intel64-sandybridge/g09/l103.exe)

 GradGradGradGradGradGradGradGradGradGradGradGradGradGradGradGradGradGrad
 Berny optimization.
 Initialization pass.
 Trust Radius=3.00D-01 FncErr=1.00D-07 GrdErr=1.00D-07
 Number of steps in this run=      2 maximum allowed number of steps=      2.
 GradGradGradGradGradGradGradGradGradGradGradGradGradGradGradGradGradGrad

 Leave Link  103 at Sat May  5 07:57:33 2018, MaxMem= 14763950080 cpu:         3.7
 (Enter /cm/shared/gaussian/g09.e01/intel64-sandybridge/g09/l202.exe)
 Symmetry turned off by external request.
 Stoichiometry    BrH256O128(1-)
 Framework group  C1[X(BrH256O128)]
 Deg. of freedom  1149
 Full point group                 C1      NOp   1
                          Input orientation:                          
 ---------------------------------------------------------------------
 Center     Atomic      Atomic             Coordinates (Angstroms)
 Number     Number       Type             X           Y           Z
 ---------------------------------------------------------------------
      1         35           0       20.000000   20.000000   20.000000
      2          8           0       17.530000   21.350000   21.330000
      3          1           0       18.380000   20.940000   21.190000
      4          1           0       17.130000   21.390000   20.460000
      5          8           0       21.010000   18.580000   17.370000
      6          1           0       21.960000   18.560000   17.240000
      7          1           0       20.900000   18.940000   18.250000
      8          8           0       19.510000   22.010000   17.330000
      9          1           0       19.690000   21.320000   17.970000
     10          1           0       20.280000   22.030000   16.770000
     11          8           0       19.350000   16.630000   20.050000
     12          1           0       19.390000   17.570000   19.880000
     13          1           0       18.430000   16.400000   19.920000
     14          8           0       22.200000   18.020000   21.970000
     15          1           0       21.700000   18.050000   22.780000
     16          1           0       21.660000   18.480000   21.330000
     17          8           0       20.820000   20.570000   23.460000
     18          1           0       20.050000   20.120000   23.120000
     19          1           0       21.560000   20.220000   22.960000
     20          8           0       20.780000   23.780000   20.420000
     21          1           0       21.450000   23.240000   20.010000
     22          1           0       20.120000   23.900000   19.730000
     23          8           0       16.180000   19.270000   21.440000
     24          1           0       16.810000   18.580000   21.210000
     25          1           0       16.680000   20.080000   21.360000
     26          8           0       17.090000   17.330000   18.630000
     27          1           0       17.350000   16.880000   17.830000
     28          1           0       17.130000   18.260000   18.400000
     29          8           0       16.720000   21.710000   18.780000
     30          1           0       16.680000   22.510000   18.250000
     31          1           0       16.780000   21.000000   18.140000
     32          8           0       22.250000   16.350000   19.120000
     33          1           0       22.650000   17.190000   19.340000
     34          1           0       21.520000   16.260000   19.730000
     35          8           0       23.630000   19.530000   17.600000
     36          1           0       24.260000   18.820000   17.660000
     37          1           0       23.680000   19.970000   18.450000
     38          8           0       22.760000   22.780000   18.910000
     39          1           0       23.650000   22.450000   19.060000
     40          1           0       22.660000   22.780000   17.960000
     41          8           0       20.620000   20.520000   15.250000
     42          1           0       20.870000   20.040000   14.460000
     43          1           0       20.760000   19.900000   15.970000
     44          8           0       18.780000   22.500000   23.750000
     45          1           0       19.490000   21.870000   23.810000
     46          1           0       18.260000   22.200000   23.000000
     47          8           0       21.720000   23.410000   22.930000
     48          1           0       21.230000   23.770000   22.190000
     49          1           0       21.500000   22.480000   22.930000
     50          8           0       19.780000   16.930000   23.650000
     51          1           0       19.250000   16.490000   24.320000
     52          1           0       19.460000   17.830000   23.640000
     53          8           0       17.290000   19.830000   16.200000
     54          1           0       17.180000   18.900000   16.020000
     55          1           0       18.230000   19.990000   16.090000
     56          8           0       18.700000   24.310000   18.780000
     57          1           0       18.560000   25.160000   18.340000
     58          1           0       18.790000   23.690000   18.060000
     59          8           0       16.750000   23.860000   21.240000
     60          1           0       17.140000   24.060000   20.390000
     61          1           0       17.110000   23.000000   21.470000
     62          8           0       19.340000   17.560000   15.630000
     63          1           0       18.820000   16.830000   15.980000
     64          1           0       20.100000   17.610000   16.220000
     65          8           0       18.040000   19.000000   23.910000
     66          1           0       17.910000   18.370000   24.620000
     67          1           0       17.170000   19.370000   23.750000
     68          8           0       20.910000   15.380000   21.680000
     69          1           0       20.430000   15.900000   22.330000
     70          1           0       20.470000   15.550000   20.850000
     71          8           0       24.640000   19.810000   20.330000
     72          1           0       25.010000   19.810000   21.220000
     73          1           0       25.210000   20.400000   19.840000
     74          8           0       17.500000   23.320000   16.210000
     75          1           0       17.280000   23.090000   15.310000
     76          1           0       18.240000   22.750000   16.430000
     77          8           0       24.520000   17.030000   21.130000
     78          1           0       23.660000   16.840000   21.510000
     79          1           0       24.450000   17.940000   20.830000
     80          8           0       22.550000   22.350000   15.610000
     81          1           0       21.990000   21.570000   15.570000
     82          1           0       23.440000   22.000000   15.590000
     83          8           0       23.440000   24.950000   20.920000
     84          1           0       23.970000   24.980000   20.130000
     85          1           0       22.640000   24.480000   20.670000
     86          8           0       14.960000   21.080000   23.360000
     87          1           0       14.490000   21.530000   22.660000
     88          1           0       15.530000   20.460000   22.900000
     89          8           0       20.130000   14.180000   17.790000
     90          1           0       20.280000   14.900000   18.410000
     91          1           0       20.670000   13.460000   18.120000
     92          8           0       21.740000   19.160000   25.970000
     93          1           0       22.450000   19.680000   26.350000
     94          1           0       21.480000   19.640000   25.180000
     95          8           0       14.170000   19.250000   19.120000
     96          1           0       14.630000   19.190000   19.960000
     97          1           0       14.050000   20.190000   18.980000
     98          8           0       24.570000   23.210000   23.160000
     99          1           0       24.600000   22.360000   22.700000
    100          1           0       23.870000   23.690000   22.730000
    101          8           0       25.480000   22.300000   19.450000
    102          1           0       25.850000   22.670000   20.260000
    103          1           0       26.090000   22.570000   18.760000
    104          8           0       18.460000   25.070000   24.370000
    105          1           0       19.260000   25.430000   24.000000
    106          1           0       18.350000   24.230000   23.940000
    107          8           0       14.480000   16.420000   20.720000
    108          1           0       14.660000   15.630000   20.210000
    109          1           0       14.700000   17.140000   20.130000
    110          8           0       17.980000   14.280000   20.700000
    111          1           0       17.120000   14.210000   21.120000
    112          1           0       18.580000   13.850000   21.310000
    113          8           0       21.590000   24.000000   25.570000
    114          1           0       22.140000   24.770000   25.480000
    115          1           0       21.490000   23.660000   24.680000
    116          8           0       22.670000   13.670000   22.050000
    117          1           0       22.910000   13.780000   22.970000
    118          1           0       21.980000   14.310000   21.890000
    119          8           0       15.650000   20.900000   14.380000
    120          1           0       16.040000   20.330000   15.040000
    121          1           0       14.740000   21.010000   14.660000
    122          8           0       14.260000   17.760000   23.310000
    123          1           0       14.710000   17.500000   22.510000
    124          1           0       13.720000   18.510000   23.060000
    125          8           0       22.170000   15.220000   15.510000
    126          1           0       22.590000   14.380000   15.330000
    127          1           0       21.540000   15.040000   16.200000
    128          8           0       16.140000   17.310000   15.570000
    129          1           0       16.000000   16.600000   14.950000
    130          1           0       15.310000   17.400000   16.040000
    131          8           0       25.660000   20.570000   23.170000
    132          1           0       25.490000   19.870000   23.810000
    133          1           0       26.250000   21.170000   23.620000
    134          8           0       15.330000   23.750000   24.360000
    135          1           0       16.120000   24.300000   24.420000
    136          1           0       15.580000   23.040000   23.780000
    137          8           0       21.730000   27.230000   20.750000
    138          1           0       21.820000   26.440000   20.210000
    139          1           0       21.700000   26.900000   21.650000
    140          8           0       15.540000   24.940000   16.650000
    141          1           0       16.190000   24.250000   16.480000
    142          1           0       16.060000   25.690000   16.930000
    143          8           0       17.930000   18.550000   13.260000
    144          1           0       17.420000   18.300000   14.040000
    145          1           0       18.710000   17.990000   13.290000
    146          8           0       17.930000   16.780000   25.520000
    147          1           0       18.350000   16.050000   25.980000
    148          1           0       17.010000   16.510000   25.430000
    149          8           0       27.000000   17.660000   19.330000
    150          1           0       27.860000   17.510000   19.720000
    151          1           0       26.390000   17.600000   20.050000
    152          8           0       19.170000   23.230000   26.710000
    153          1           0       20.060000   23.550000   26.570000
    154          1           0       18.740000   23.300000   25.860000
    155          8           0       22.690000   26.300000   23.240000
    156          1           0       23.490000   26.800000   23.390000
    157          1           0       22.910000   25.730000   22.500000
    158          8           0       23.490000   21.270000   26.370000
    159          1           0       23.520000   21.630000   27.260000
    160          1           0       23.110000   21.980000   25.850000
    161          8           0       24.830000   20.440000   14.910000
    162          1           0       25.500000   21.020000   15.270000
    163          1           0       25.120000   19.560000   15.160000
    164          8           0       16.480000   26.910000   21.310000
    165          1           0       16.450000   25.960000   21.170000
    166          1           0       15.750000   27.250000   20.790000
    167          8           0       13.590000   22.490000   21.530000
    168          1           0       13.330000   23.320000   21.930000
    169          1           0       13.460000   22.630000   20.590000
    170          8           0       21.160000   26.170000   16.720000
    171          1           0       20.960000   25.830000   15.850000
    172          1           0       20.650000   26.970000   16.790000
    173          8           0       26.980000   17.380000   22.050000
    174          1           0       27.600000   16.660000   22.010000
    175          1           0       26.120000   16.970000   21.930000
    176          8           0       19.590000   12.800000   22.330000
    177          1           0       20.380000   13.130000   21.900000
    178          1           0       19.650000   13.140000   23.230000
    179          8           0       23.640000   26.150000   17.790000
    180          1           0       24.060000   25.680000   17.070000
    181          1           0       22.710000   26.170000   17.560000
    182          8           0       17.000000   13.350000   17.420000
    183          1           0       16.440000   13.900000   17.960000
    184          1           0       17.890000   13.530000   17.740000
    185          8           0       25.720000   17.050000   16.820000
    186          1           0       26.250000   16.750000   16.080000
    187          1           0       26.350000   17.290000   17.490000
    188          8           0       16.450000   20.650000   26.450000
    189          1           0       15.590000   20.390000   26.100000
    190          1           0       16.580000   21.540000   26.140000
    191          8           0       24.310000   17.410000   13.920000
    192          1           0       25.100000   16.870000   13.970000
    193          1           0       23.680000   16.980000   14.490000
    194          8           0       18.100000   21.110000   12.310000
    195          1           0       18.990000   21.190000   11.970000
    196          1           0       18.140000   20.390000   12.940000
    197          8           0       24.300000   13.390000   19.970000
    198          1           0       24.360000   14.110000   19.350000
    199          1           0       23.540000   13.600000   20.520000
    200          8           0       22.750000   20.080000   13.140000
    201          1           0       23.600000   19.860000   13.530000
    202          1           0       22.910000   20.900000   12.680000
    203          8           0       18.270000   18.500000   27.590000
    204          1           0       18.280000   19.360000   27.160000
    205          1           0       18.090000   17.890000   26.870000
    206          8           0       13.840000   22.510000   16.640000
[...]
   Z335      37.64334   0.00531   0.00000   0.00168   0.00243  37.64578
   X336      21.42949   0.00128   0.00000  -0.00057  -0.00064  21.42885
   Y336      41.61177   0.00478   0.00000   0.00669   0.00652  41.61829
   Z336      37.01973   0.00046   0.00000   0.00176   0.00255  37.02228
   X337      19.46418   0.00333   0.00000   0.00748   0.00741  19.47159
   Y337      39.68425  -0.00716   0.00000  -0.00917  -0.00930  39.67495
   Z337      36.22605  -0.00415   0.00000  -0.00281  -0.00213  36.22392
   X338      26.89080  -0.00980   0.00000  -0.00679  -0.00736  26.88344
   Y338      48.18802   0.00186   0.00000  -0.00145  -0.00053  48.18749
   Z338      26.73962  -0.01206   0.00000  -0.01050  -0.00928  26.73035
   X339      26.94749   0.00305   0.00000   0.00419   0.00361  26.95111
   Y339      49.92656  -0.00065   0.00000  -0.00286  -0.00199  49.92458
   Z339      27.26875   0.00176   0.00000  -0.00026   0.00113  27.26988
   X340      27.89236   0.00571   0.00000   0.00249   0.00198  27.89434
   Y340      47.31874   0.00046   0.00000   0.00452   0.00534  47.32409
   Z340      27.96795   0.00973   0.00000   0.00610   0.00720  27.97515
   X341      29.49862  -0.01920   0.00000  -0.01888  -0.01893  29.47969
   Y341      24.50975  -0.00742   0.00000  -0.00695  -0.00616  24.50358
   Z341      28.64825  -0.00935   0.00000  -0.00711  -0.00825  28.63999
   X342      30.59467   0.00633   0.00000   0.00443   0.00431  30.59898
   Y342      25.43571   0.00065   0.00000  -0.00392  -0.00301  25.43271
   Z342      27.53331   0.00225   0.00000   0.00609   0.00499  27.53830
   X343      30.29231   0.00721   0.00000   0.00477   0.00477  30.29708
   Y343      24.64203   0.00177   0.00000  -0.00025   0.00040  24.64243
   Z343      30.27341   0.00107   0.00000  -0.00608  -0.00724  30.26617
   X344      44.84320  -0.00406   0.00000  -0.00538  -0.00582  44.83738
   Y344      54.68867   0.02121   0.00000   0.01349   0.01410  54.70278
   Z344      33.44815   0.01085   0.00000   0.00394   0.00514  33.45329
   X345      45.22115   0.00314   0.00000   0.00358   0.00306  45.22421
   Y345      55.14221   0.00025   0.00000  -0.00087  -0.00008  55.14213
   Z345      31.74740  -0.01110   0.00000  -0.00939  -0.00817  31.73923
   X346      44.71092   0.00231   0.00000   0.00562   0.00521  44.71613
   Y346      52.89343  -0.01924   0.00000  -0.01073  -0.01012  52.88331
   Z346      33.42926  -0.00079   0.00000   0.00020   0.00122  33.43048
   X347      47.52661   0.01448   0.00000   0.01281   0.01293  47.53955
   Y347      22.56333   0.00786   0.00000   0.00292   0.00366  22.56699
   Z347      32.63557   0.00347   0.00000   0.00032  -0.00167  32.63390
   X348      46.37388  -0.01211   0.00000  -0.00996  -0.00985  46.36403
   Y348      21.50508  -0.00485   0.00000  -0.00107  -0.00027  21.50481
   Z348      31.74740  -0.00428   0.00000   0.00219   0.00014  31.74754
   X349      46.86521  -0.00255   0.00000  -0.00345  -0.00337  46.86184
   Y349      24.24519  -0.00298   0.00000  -0.00413  -0.00338  24.24181
   Z349      32.38991   0.00070   0.00000   0.00323   0.00142  32.39133
   X350      21.41060  -0.00993   0.00000  -0.00337  -0.00316  21.40744
   Y350      41.49839  -0.00941   0.00000  -0.00778  -0.00868  41.48970
   Z350      44.67313  -0.00511   0.00000  -0.00430  -0.00352  44.66961
   X351      21.27832   0.00549   0.00000   0.00819   0.00834  21.28666
   Y351      43.06686   0.00232   0.00000   0.00060  -0.00022  43.06664
   Z351      43.76606  -0.00013   0.00000   0.00038   0.00132  43.76738
   X352      22.94128   0.00888   0.00000   0.00234   0.00258  22.94385
   Y352      41.66846   0.00540   0.00000   0.00690   0.00593  41.67439
   Z352      45.61799   0.01189   0.00000   0.01315   0.01389  45.63188
   X353      37.60555   0.01684   0.00000   0.01260   0.01337  37.61892
   Y353      33.65602   0.00539   0.00000   0.00260   0.00092  33.65694
   Z353      55.93589   0.00316   0.00000  -0.00038  -0.00094  55.93495
   X354      36.43392  -0.01022   0.00000  -0.00731  -0.00659  36.42733
   Y354      33.88279   0.00563   0.00000   0.00950   0.00793  33.89072
   Z354      54.55639  -0.01014   0.00000  -0.00521  -0.00570  54.55069
   X355      37.07643  -0.00425   0.00000  -0.00343  -0.00260  37.07383
   Y355      32.14424  -0.00900   0.00000  -0.00360  -0.00537  32.13887
   Z355      56.74848   0.00634   0.00000   0.00622   0.00553  56.75401
   X356      53.76271   0.02174   0.00000   0.01347   0.01321  53.77592
   Y356      46.29829  -0.00139   0.00000  -0.00424  -0.00354  46.29475
   Z356      34.26073   0.00149   0.00000  -0.00013  -0.00007  34.26067
   X357      52.30762  -0.01673   0.00000  -0.00949  -0.00980  52.29782
   Y357      46.63844   0.00338   0.00000   0.00161   0.00238  46.64082
   Z357      33.25918  -0.01022   0.00000  -0.00620  -0.00605  33.25313
   X358      53.12020  -0.00392   0.00000  -0.00129  -0.00148  53.11873
   Y358      45.58019  -0.00172   0.00000   0.00101   0.00155  45.58175
   Z358      35.79141   0.01082   0.00000   0.00983   0.00984  35.80126
   X359      34.37412   0.01066   0.00000   0.00449   0.00521  34.37932
   Y359      27.89236   0.00722   0.00000   0.00541   0.00409  27.89644
   Z359      51.57063  -0.01226   0.00000  -0.00555  -0.00654  51.56408
   X360      32.71116  -0.01248   0.00000  -0.00957  -0.00886  32.70230
   Y360      28.53486   0.00241   0.00000   0.00140   0.00002  28.53488
   Z360      51.81629   0.00605   0.00000   0.00821   0.00733  51.82363
   X361      34.50640   0.00177   0.00000   0.00283   0.00362  34.51002
   Y361      26.49396  -0.01163   0.00000  -0.00628  -0.00770  26.48626
   Z361      52.68556   0.01021   0.00000   0.00736   0.00622  52.69178
   X362      49.37854   0.02319   0.00000   0.01649   0.01691  49.39545
   Y362      24.26408  -0.00994   0.00000  -0.01159  -0.01166  24.25242
   Z362      41.47949  -0.00100   0.00000   0.00514   0.00324  41.48273
   X363      48.50927  -0.01030   0.00000  -0.00755  -0.00709  48.50218
   Y363      24.90659   0.00755   0.00000   0.00719   0.00696  24.91355
   Z363      42.91568   0.00847   0.00000   0.00363   0.00183  42.91751
   X364      48.09353  -0.00627   0.00000   0.00140   0.00178  48.09531
   Y364      24.09401   0.00503   0.00000   0.00921   0.00924  24.10325
   Z364      40.21337  -0.00825   0.00000  -0.00451  -0.00637  40.20700
   X365      52.38321  -0.00867   0.00000  -0.00601  -0.00638  52.37683
   Y365      39.11733  -0.00763   0.00000  -0.00716  -0.00584  39.11149
   Z365      27.59000  -0.00795   0.00000  -0.00532  -0.00590  27.58410
   X366      52.79895   0.00446   0.00000   0.00542   0.00512  52.80407
   Y366      38.32365   0.00586   0.00000   0.00934   0.01051  38.33416
   Z366      29.17737   0.00562   0.00000   0.00551   0.00485  29.18222
   X367      53.25248   0.00369   0.00000   0.00080   0.00041  53.25289
   Y367      40.70470   0.00566   0.00000   0.00070   0.00203  40.70673
   Z367      27.64669   0.00448   0.00000   0.00531   0.00485  27.65155
   X368      44.50305   0.01284   0.00000   0.01161   0.01100  44.51406
   Y368      50.22892   0.01260   0.00000   0.00395   0.00520  50.23412
   Z368      26.66404   0.00878   0.00000   0.00824   0.00902  26.67305
   X369      42.87789  -0.00512   0.00000  -0.00191  -0.00250  42.87538
   Y369      50.70135  -0.00392   0.00000  -0.00705  -0.00589  50.69547
   Z369      27.30654   0.00124   0.00000   0.00032   0.00120  27.30774
   X370      44.21959  -0.00629   0.00000  -0.00535  -0.00596  44.21364
   Y370      48.64155  -0.01170   0.00000  -0.00595  -0.00462  48.63693
   Z370      25.87035  -0.00688   0.00000  -0.00535  -0.00471  25.86564
   X371      26.87191  -0.00027   0.00000  -0.00702  -0.00725  26.86466
   Y371      51.40055   0.00158   0.00000   0.00630   0.00615  51.40670
   Z371      37.87011  -0.00866   0.00000  -0.01291  -0.01137  37.85874
   X372      25.88925  -0.00037   0.00000  -0.00010  -0.00034  25.88890
   Y372      50.38010  -0.00436   0.00000  -0.00546  -0.00551  50.37459
   Z372      36.71738  -0.00869   0.00000  -0.01349  -0.01202  36.70536
   X373      25.64358  -0.00835   0.00000  -0.00788  -0.00808  25.63551
   Y373      52.15644   0.00555   0.00000   0.00444   0.00416  52.16060
   Z373      38.94726   0.00844   0.00000   0.00626   0.00791  38.95516
   X374      29.55532  -0.00257   0.00000  -0.00704  -0.00660  29.54871
   Y374      43.63378  -0.00314   0.00000   0.00420   0.00275  43.63653
   Z374      51.94857  -0.01503   0.00000  -0.01063  -0.00994  51.93863
   X375      28.74273  -0.00525   0.00000  -0.00277  -0.00227  28.74047
   Y375      43.04796  -0.00518   0.00000  -0.00356  -0.00517  43.04279
   Z375      53.44146   0.01155   0.00000   0.00690   0.00756  53.44902
   X376      30.25452   0.00830   0.00000   0.00934   0.00976  30.26428
   Y376      45.24004   0.01154   0.00000   0.00941   0.00793  45.24797
   Z376      52.42100   0.00250   0.00000  -0.00008   0.00074  52.42174
   X377      44.52195   0.03035   0.00000   0.02813   0.02878  44.55072
   Y377      38.24806   0.01083   0.00000   0.01965   0.01819  38.26624
   Z377      55.04772   0.00136   0.00000  -0.01004  -0.01041  55.03731
   X378      42.84009  -0.02144   0.00000  -0.01263  -0.01200  42.82809
   Y378      38.45593   0.00336   0.00000   0.00417   0.00273  38.45865
   Z378      54.42411   0.00281   0.00000   0.01491   0.01462  54.43873
   X379      45.18335   0.00156   0.00000   0.00088   0.00152  45.18487
   Y379      36.84966  -0.01019   0.00000  -0.01257  -0.01393  36.83573
   Z379      54.10286   0.00222   0.00000   0.00748   0.00695  54.10980
   X380      48.33919  -0.01704   0.00000  -0.00956  -0.01012  48.32907
   Y380      40.47793   0.01757   0.00000   0.01313   0.01483  40.49276
   Z380      22.77120  -0.00757   0.00000   0.00414   0.00385  22.77505
   X381      48.62265   0.00600   0.00000   0.00470   0.00420  48.62685
   Y381      39.47638  -0.01585   0.00000  -0.01374  -0.01217  39.46420
   Z381      24.22629   0.02043   0.00000   0.01481   0.01440  24.24069
   X382      49.96436   0.01001   0.00000   0.00477   0.00417  49.96853
   Y382      40.66691   0.00002   0.00000  -0.00146   0.00035  40.66725
   Z382      22.01531  -0.00345   0.00000  -0.00149  -0.00183  22.01348
   X383      33.33477  -0.02021   0.00000  -0.01653  -0.01612  33.31865
   Y383      47.35654   0.00879   0.00000   0.00468   0.00319  47.35973
   Z383      53.06351  -0.00086   0.00000   0.00340   0.00431  53.06782
   X384      34.52530   0.01359   0.00000   0.00721   0.00763  34.53293
   Y384      46.01483  -0.01354   0.00000  -0.00450  -0.00594  46.00889
   Z384      52.85564  -0.01175   0.00000  -0.01823  -0.01749  52.83815
   X385      33.84500   0.00181   0.00000  -0.00031   0.00014  33.84514
   Y385      48.18802   0.00676   0.00000   0.00779   0.00617  48.19419
   Z385      54.57529   0.01094   0.00000   0.00929   0.01026  54.58555
         Item               Value     Threshold  Converged?
 Maximum Force            0.051793     0.000450     NO 
 RMS     Force            0.010546     0.000300     NO 
 Maximum Displacement     0.041580     0.001800     NO 
 RMS     Displacement     0.008799     0.001200     NO 
 Predicted change in Energy=-7.383735D-02
 GradGradGradGradGradGradGradGradGradGradGradGradGradGradGradGradGradGrad

 Leave Link  103 at Sat May  5 10:19:16 2018, MaxMem= 14763950080 cpu:      2593.6
 (Enter /cm/shared/gaussian/g09.e01/intel64-sandybridge/g09/l9999.exe)
 1\1\GINC-POPLE01\Force\RPBE1PBE\CC-pVDZ\Br1H256O128(1-)\M.PELUSO\05-Ma
 y-2018\0\\#p PBE1PBE/cc-pvDZ force Counterpoise=2 noSymm\\forces on ch
 loride comput - NWATER: 128\\-1,1\Br,20.,20.,20.\O,17.53,21.35,21.33\H
 ,18.38,20.94,21.19\H,17.13,21.39,20.46\O,21.01,18.58,17.37\H,21.96,18.
 56,17.24\H,20.9,18.94,18.25\O,19.51,22.01,17.33\H,19.69,21.32,17.97\H,
 20.28,22.03,16.77\O,19.35,16.63,20.05\H,19.39,17.57,19.88\H,18.43,16.4
 ,19.92\O,22.2,18.02,21.97\H,21.7,18.05,22.78\H,21.66,18.48,21.33\O,20.
 82,20.57,23.46\H,20.05,20.12,23.12\H,21.56,20.22,22.96\O,20.78,23.78,2
 0.42\H,21.45,23.24,20.01\H,20.12,23.9,19.73\O,16.18,19.27,21.44\H,16.8
 1,18.58,21.21\H,16.68,20.08,21.36\O,17.09,17.33,18.63\H,17.35,16.88,17
 .83\H,17.13,18.26,18.4\O,16.72,21.71,18.78\H,16.68,22.51,18.25\H,16.78
 ,21.,18.14\O,22.25,16.35,19.12\H,22.65,17.19,19.34\H,21.52,16.26,19.73
 \O,23.63,19.53,17.6\H,24.26,18.82,17.66\H,23.68,19.97,18.45\O,22.76,22
 .78,18.91\H,23.65,22.45,19.06\H,22.66,22.78,17.96\O,20.62,20.52,15.25\
 H,20.87,20.04,14.46\H,20.76,19.9,15.97\O,18.78,22.5,23.75\H,19.49,21.8
 7,23.81\H,18.26,22.2,23.\O,21.72,23.41,22.93\H,21.23,23.77,22.19\H,21.
 5,22.48,22.93\O,19.78,16.93,23.65\H,19.25,16.49,24.32\H,19.46,17.83,23
 .64\O,17.29,19.83,16.2\H,17.18,18.9,16.02\H,18.23,19.99,16.09\O,18.7,2
 4.31,18.78\H,18.56,25.16,18.34\H,18.79,23.69,18.06\O,16.75,23.86,21.24
 \H,17.14,24.06,20.39\H,17.11,23.,21.47\O,19.34,17.56,15.63\H,18.82,16.
 83,15.98\H,20.1,17.61,16.22\O,18.04,19.,23.91\H,17.91,18.37,24.62\H,17
 .17,19.37,23.75\O,20.91,15.38,21.68\H,20.43,15.9,22.33\H,20.47,15.55,2
 0.85\O,24.64,19.81,20.33\H,25.01,19.81,21.22\H,25.21,20.4,19.84\O,17.5
 ,23.32,16.21\H,17.28,23.09,15.31\H,18.24,22.75,16.43\O,24.52,17.03,21.
 13\H,23.66,16.84,21.51\H,24.45,17.94,20.83\O,22.55,22.35,15.61\H,21.99
 ,21.57,15.57\H,23.44,22.,15.59\O,23.44,24.95,20.92\H,23.97,24.98,20.13
 \H,22.64,24.48,20.67\O,14.96,21.08,23.36\H,14.49,21.53,22.66\H,15.53,2
 0.46,22.9\O,20.13,14.18,17.79\H,20.28,14.9,18.41\H,20.67,13.46,18.12\O
 ,21.74,19.16,25.97\H,22.45,19.68,26.35\H,21.48,19.64,25.18\O,14.17,19.
 25,19.12\H,14.63,19.19,19.96\H,14.05,20.19,18.98\O,24.57,23.21,23.16\H
 ,24.6,22.36,22.7\H,23.87,23.69,22.73\O,25.48,22.3,19.45\H,25.85,22.67,
 20.26\H,26.09,22.57,18.76\O,18.46,25.07,24.37\H,19.26,25.43,24.\H,18.3
 5,24.23,23.94\O,14.48,16.42,20.72\H,14.66,15.63,20.21\H,14.7,17.14,20.
 13\O,17.98,14.28,20.7\H,17.12,14.21,21.12\H,18.58,13.85,21.31\O,21.59,
 24.,25.57\H,22.14,24.77,25.48\H,21.49,23.66,24.68\O,22.67,13.67,22.05\
 H,22.91,13.78,22.97\H,21.98,14.31,21.89\O,15.65,20.9,14.38\H,16.04,20.
 33,15.04\H,14.74,21.01,14.66\O,14.26,17.76,23.31\H,14.71,17.5,22.51\H,
 13.72,18.51,23.06\O,22.17,15.22,15.51\H,22.59,14.38,15.33\H,21.54,15.0
 4,16.2\O,16.14,17.31,15.57\H,16.,16.6,14.95\H,15.31,17.4,16.04\O,25.66
 ,20.57,23.17\H,25.49,19.87,23.81\H,26.25,21.17,23.62\O,15.33,23.75,24.
 36\H,16.12,24.3,24.42\H,15.58,23.04,23.78\O,21.73,27.23,20.75\H,21.82,
 26.44,20.21\H,21.7,26.9,21.65\O,15.54,24.94,16.65\H,16.19,24.25,16.48\
 H,16.06,25.69,16.93\O,17.93,18.55,13.26\H,17.42,18.3,14.04\H,18.71,17.
 99,13.29\O,17.93,16.78,25.52\H,18.35,16.05,25.98\H,17.01,16.51,25.43\O
 ,27.,17.66,19.33\H,27.86,17.51,19.72\H,26.39,17.6,20.05\O,19.17,23.23,
 26.71\H,20.06,23.55,26.57\H,18.74,23.3,25.86\O,22.69,26.3,23.24\H,23.4
 9,26.8,23.39\H,22.91,25.73,22.5\O,23.49,21.27,26.37\H,23.52,21.63,27.2
 6\H,23.11,21.98,25.85\O,24.83,20.44,14.91\H,25.5,21.02,15.27\H,25.12,1
 9.56,15.16\O,16.48,26.91,21.31\H,16.45,25.96,21.17\H,15.75,27.25,20.79
 \O,13.59,22.49,21.53\H,13.33,23.32,21.93\H,13.46,22.63,20.59\O,21.16,2
 6.17,16.72\H,20.96,25.83,15.85\H,20.65,26.97,16.79\O,26.98,17.38,22.05
 \H,27.6,16.66,22.01\H,26.12,16.97,21.93\O,19.59,12.8,22.33\H,20.38,13.
 13,21.9\H,19.65,13.14,23.23\O,23.64,26.15,17.79\H,24.06,25.68,17.07\H,
 22.71,26.17,17.56\O,17.,13.35,17.42\H,16.44,13.9,17.96\H,17.89,13.53,1
 7.74\O,25.72,17.05,16.82\H,26.25,16.75,16.08\H,26.35,17.29,17.49\O,16.
 45,20.65,26.45\H,15.59,20.39,26.1\H,16.58,21.54,26.14\O,24.31,17.41,13
 .92\H,25.1,16.87,13.97\H,23.68,16.98,14.49\O,18.1,21.11,12.31\H,18.99,
 21.19,11.97\H,18.14,20.39,12.94\O,24.3,13.39,19.97\H,24.36,14.11,19.35
 \H,23.54,13.6,20.52\O,22.75,20.08,13.14\H,23.6,19.86,13.53\H,22.91,20.
 9,12.68\O,18.27,18.5,27.59\H,18.28,19.36,27.16\H,18.09,17.89,26.87\O,1
 3.84,22.51,16.64\H,12.92,22.73,16.49\H,14.29,23.35,16.58\O,13.41,19.69
 ,15.6\H,13.35,19.9,16.54\H,12.6,19.22,15.41\O,16.77,23.07,13.33\H,17.3
 1,22.49,12.79\H,16.32,22.49,13.94\O,13.9,21.55,25.7\H,14.48,22.22,26.0
 7\H,14.23,21.42,24.81\O,25.32,23.53,14.58\H,24.4,23.54,14.84\H,25.34,2
 2.97,13.8\O,15.41,16.01,25.08\H,15.2,16.09,26.01\H,14.9,16.7,24.65\O,2
 7.83,20.65,17.55\H,27.29,19.86,17.57\H,28.42,20.56,18.3\O,15.87,14.02,
 22.54\H,16.02,14.2,23.47\H,15.08,14.52,22.32\O,11.66,19.22,18.13\H,11.
 26,18.39,17.89\H,12.51,18.99,18.49\O,25.77,19.98,26.02\H,26.26,20.25,2
 6.79\H,25.09,20.65,25.92\O,25.06,14.78,23.74\H,25.55,15.49,23.31\H,25.
 53,14.64,24.57\O,17.78,26.72,16.49\H,17.6,27.06,17.37\H,17.94,27.5,15.
 96\O,20.02,13.48,25.06\H,20.23,14.28,25.54\H,19.51,12.95,25.68\O,25.75
 ,24.33,25.25\H,25.26,23.84,24.59\H,26.59,23.87,25.31\O,21.93,15.08,27.
 07\H,21.74,15.1,28.01\H,21.93,16.,26.81\O,12.06,19.67,21.92\H,11.93,20
 .05,21.05\H,12.2,20.43,22.49\O,25.71,26.44,19.67\H,26.37,26.27,18.99\H
 ,24.88,26.51,19.19\O,17.7,25.72,13.96\H,17.64,25.95,14.89\H,17.02,25.0
 6,13.83\O,21.97,17.83,11.74\H,22.43,18.43,12.32\H,21.63,17.14,12.32\O,
 14.72,13.71,19.61\H,15.26,12.92,19.59\H,13.9,13.44,19.2\O,13.96,15.65,
 16.34\H,13.35,15.76,15.61\H,13.42,15.81,17.12\O,20.96,15.2,12.62\H,21.
 61,14.8,12.04\H,21.17,14.87,13.49\O,20.44,19.93,11.47\H,21.09,19.28,11
 .71\H,19.6,19.49,11.59\O,24.27,17.86,27.74\H,24.63,17.,27.52\H,24.42,1
 8.39,26.95\O,22.42,12.13,18.36\H,21.93,11.42,18.79\H,23.24,12.19,18.85
 \O,27.47,23.79,20.75\H,27.07,24.63,20.98\H,28.17,23.68,21.38\O,14.14,1
 8.14,13.14\H,14.37,18.7,13.88\H,13.19,18.04,13.19\O,26.74,17.65,24.89\
 H,27.06,17.68,23.99\H,26.62,18.57,25.13\O,18.06,21.76,28.63\H,17.19,21
 .46,28.36\H,18.34,22.37,27.94\O,17.35,14.52,13.66\H,16.85,15.13,13.12\
 H,18.26,14.8,13.55\O,16.88,26.67,25.87\H,17.29,26.24,25.12\H,17.12,26.
 13,26.62\O,12.84,24.5,23.21\H,13.7,24.49,23.62\H,12.59,25.42,23.18\O,2
 0.46,26.11,14.04\H,19.52,26.01,13.89\H,20.57,27.02,14.29\O,26.19,25.19
 ,16.67\H,26.44,25.99,16.22\H,26.01,24.56,15.97\O,13.21,26.07,17.44\H,1
 3.58,26.86,17.06\H,13.92,25.42,17.38\O,11.5,16.4,20.49\H,10.87,16.35,2
 1.22\H,12.35,16.23,20.89\O,23.05,13.22,25.37\H,23.56,13.92,24.96\H,22.
 39,13.68,25.89\O,17.33,28.38,18.73\H,17.7,28.34,19.6\H,16.58,28.98,18.
 81\O,19.73,29.59,19.83\H,19.64,28.65,19.66\H,20.64,29.7,20.09\O,21.07,
 20.61,28.65\H,20.35,21.2,28.89\H,20.68,19.74,28.68\O,12.23,23.98,19.58
 \H,11.7,24.62,20.06\H,12.02,24.13,18.66\O,17.36,28.41,23.28\H,17.25,27
 .71,23.93\H,17.22,27.97,22.44\O,16.09,11.48,19.45\H,16.65,11.93,18.81\
 H,16.32,10.55,19.34\O,10.58,21.53,19.92\H,11.34,22.02,19.59\H,10.3,21.
 ,19.17\O,14.23,25.5,14.15\H,14.26,26.42,14.43\H,14.76,25.04,14.8\O,15.
 61,12.97,15.16\H,16.19,13.46,14.57\H,16.03,13.04,16.02\O,23.73,28.94,1
 7.7\H,23.93,29.18,16.8\H,23.66,27.99,17.69\O,25.15,11.94,17.27\H,24.54
 ,11.38,16.8\H,24.8,12.83,17.14\O,11.33,21.96,23.64\H,11.26,22.79,23.16
 \H,12.14,22.05,24.14\O,19.9,17.81,29.6\H,19.28,17.93,28.87\H,19.62,17.
 01,30.03\O,28.45,24.5,18.13\H,27.68,24.68,17.6\H,28.11,24.12,18.94\O,1
 8.19,14.76,27.29\H,17.31,15.1,27.42\H,18.26,14.02,27.88\O,26.13,12.84,
 21.95\H,25.67,13.18,22.71\H,25.45,12.75,21.28\O,27.72,20.7,14.6\H,27.9
 4,20.28,15.44\H,28.18,21.54,14.63\O,23.55,26.58,14.11\H,22.69,26.83,14
 .45\H,23.4,25.74,13.69\O,14.22,27.2,20.04\H,13.7,26.66,19.43\H,13.57,2
 7.6,20.61\O,15.64,23.09,27.49\H,15.21,22.78,28.28\H,16.01,23.94,27.74\
 O,23.56,20.24,29.13\H,22.67,20.35,28.8\H,23.91,19.5,28.63\O,25.58,21.4
 2,12.05\H,25.73,20.89,12.82\H,26.44,21.52,11.65\O,17.64,25.06,28.08\H,
 18.27,24.35,27.97\H,17.91,25.5,28.88\\Version=ES64L-G09RevE.01\HF=-977
 3.3692034\RMSD=1.746e-09\RMSF=1.055e-02\Dipole=2.158788,-2.8273142,-3.
 076623\Quadrupole=418.6868771,-196.7333972,-221.9534799,-1452.944553,-
 1500.9008773,-1737.3336308\PG=C01 [X(Br1H256O128)]\\@


 Luck is a matter of preparation meeting opportunity.
                                    -- Oprah Winfrey
 Job cpu time:       6 days  4 hours 33 minutes 52.7 seconds.
 File lengths (MBytes):  RWF=   7285 Int=      0 D2E=      0 Chk=   2411 Scr=      1
 Normal termination of Gaussian 09 at Sat May  5 10:19:39 2018.
