 Entering Gaussian System, Link 0=/cm/shared/gaussian/g09.e01/intel64-sandybridge/g09/g09
 Initial command:
 /cm/shared/gaussian/g09.e01/intel64-sandybridge/g09/l1.exe "/local/scratch/m.peluso/128_wat/370/Gau-31939.inp" -scrdir="/local/scratch/m.peluso/128_wat/370/"
 Entering Link 1 = /cm/shared/gaussian/g09.e01/intel64-sandybridge/g09/l1.exe PID=     31940.
  
 Copyright (c) 1988,1990,1992,1993,1995,1998,2003,2009,2015,
            Gaussian, Inc.  All Rights Reserved.
  
 This is part of the Gaussian(R) 09 program.  It is based on
 the Gaussian(R) 03 system (copyright 2003, Gaussian, Inc.),
 the Gaussian(R) 98 system (copyright 1998, Gaussian, Inc.),
 the Gaussian(R) 94 system (copyright 1995, Gaussian, Inc.),
 the Gaussian 92(TM) system (copyright 1992, Gaussian, Inc.),
 the Gaussian 90(TM) system (copyright 1990, Gaussian, Inc.),
 the Gaussian 88(TM) system (copyright 1988, Gaussian, Inc.),
 the Gaussian 86(TM) system (copyright 1986, Carnegie Mellon
 University), and the Gaussian 82(TM) system (copyright 1983,
 Carnegie Mellon University). Gaussian is a federally registered
 trademark of Gaussian, Inc.
  
 This software contains proprietary and confidential information,
 including trade secrets, belonging to Gaussian, Inc.
  
 This software is provided under written license and may be
 used, copied, transmitted, or stored only in accord with that
 written license.
  
 The following legend is applicable only to US Government
 contracts under FAR:
  
                    RESTRICTED RIGHTS LEGEND
  
 Use, reproduction and disclosure by the US Government is
 subject to restrictions as set forth in subparagraphs (a)
 and (c) of the Commercial Computer Software - Restricted
 Rights clause in FAR 52.227-19.
  
 Gaussian, Inc.
 340 Quinnipiac St., Bldg. 40, Wallingford CT 06492
  
  
 ---------------------------------------------------------------
 Warning -- This program may not be used in any manner that
 competes with the business of Gaussian, Inc. or will provide
 assistance to any competitor of Gaussian, Inc.  The licensee
 of this program is prohibited from giving any competitor of
 Gaussian, Inc. access to this program.  By using this program,
 the user acknowledges that Gaussian, Inc. is engaged in the
 business of creating and licensing software in the field of
 computational chemistry and represents and warrants to the
 licensee that it is not a competitor of Gaussian, Inc. and that
 it will not use this program in any manner prohibited above.
 ---------------------------------------------------------------
  

 Cite this work as:
 Gaussian 09, Revision E.01,
 M. J. Frisch, G. W. Trucks, H. B. Schlegel, G. E. Scuseria, 
 M. A. Robb, J. R. Cheeseman, G. Scalmani, V. Barone, B. Mennucci, 
 G. A. Petersson, H. Nakatsuji, M. Caricato, X. Li, H. P. Hratchian, 
 A. F. Izmaylov, J. Bloino, G. Zheng, J. L. Sonnenberg, M. Hada, 
 M. Ehara, K. Toyota, R. Fukuda, J. Hasegawa, M. Ishida, T. Nakajima, 
 Y. Honda, O. Kitao, H. Nakai, T. Vreven, J. A. Montgomery, Jr., 
 J. E. Peralta, F. Ogliaro, M. Bearpark, J. J. Heyd, E. Brothers, 
 K. N. Kudin, V. N. Staroverov, T. Keith, R. Kobayashi, J. Normand, 
 K. Raghavachari, A. Rendell, J. C. Burant, S. S. Iyengar, J. Tomasi, 
 M. Cossi, N. Rega, J. M. Millam, M. Klene, J. E. Knox, J. B. Cross, 
 V. Bakken, C. Adamo, J. Jaramillo, R. Gomperts, R. E. Stratmann, 
 O. Yazyev, A. J. Austin, R. Cammi, C. Pomelli, J. W. Ochterski, 
 R. L. Martin, K. Morokuma, V. G. Zakrzewski, G. A. Voth, 
 P. Salvador, J. J. Dannenberg, S. Dapprich, A. D. Daniels, 
 O. Farkas, J. B. Foresman, J. V. Ortiz, J. Cioslowski, 
 and D. J. Fox, Gaussian, Inc., Wallingford CT, 2013.
 
 ******************************************
 Gaussian 09:  ES64L-G09RevE.01 30-Nov-2015
                 6-May-2018 
 ******************************************
 %Mem=110GB
 %NProcShared=64
 Will use up to   64 processors via shared memory.
 %chk=snap81.chk
 ----------------------------------------------
 #p PBE1PBE/cc-pvDZ force Counterpoise=2 noSymm
 ----------------------------------------------
 1/10=7,30=1,38=1,62=2/1,3;
 2/12=2,15=1,17=6,18=5,40=1/2;
 1/10=7,30=1,38=1,53=2,62=2,63=101/22;
 3/5=16,11=2,16=1,25=1,30=1,71=1,74=-13/1,2,3;
 4//1;
 5/5=2,38=5/2;
 6/7=2,8=2,9=2,10=2,28=1/1;
 7/7=1,29=1,30=1,33=-1/1,2,3,16;
 1/10=7,30=1,53=2,62=2,63=101/22;
 3/5=7,6=11,11=2,16=1,25=1,30=1,71=1,74=-13,82=7/1,2,3;
 4//1;
 5/5=2,38=5/2;
 6/7=2,8=2,9=2,10=2,28=1/1;
 7/7=1,29=1,30=1,33=-1/1,2,3,16;
 1/10=7,30=1,53=2,62=2,63=101/22(-5);
 7/9=1,29=1,44=-1/16;
 1/10=7,30=1,62=2/3;
 99//99;
 Leave Link    1 at Sun May  6 05:12:11 2018, MaxMem= 14763950080 cpu:         4.4
 (Enter /cm/shared/gaussian/g09.e01/intel64-sandybridge/g09/l101.exe)
 ---------------------------------------
 forces on chloride comput - NWATER: 128
 ---------------------------------------
 Symbolic Z-matrix:
 Charge = -1 Multiplicity = 1 in supermolecule
 Charge = -1 Multiplicity = 1 in fragment      1.
 Charge =  0 Multiplicity = 1 in fragment      2.
 Br(Fragment=1)        20.       20.       20. 
 O(Fragment=2)         23.18     19.94     19.88 
 H(Fragment=2)         22.26     20.12     19.7 
 H(Fragment=2)         23.18     19.55     20.76 
 O(Fragment=2)         19.54     22.89     18.7 
 H(Fragment=2)         19.88     22.05     18.99 
 H(Fragment=2)         18.67     22.95     19.09 
 O(Fragment=2)         17.43     20.14     18.01 
 H(Fragment=2)         18.26     20.17     18.49 
 H(Fragment=2)         17.21     19.21     17.94 
 O(Fragment=2)         18.71     21.96     22.21 
 H(Fragment=2)         19.27     21.77     21.46 
 H(Fragment=2)         18.06     21.25     22.21 
 O(Fragment=2)         21.08     18.49     17.01 
 H(Fragment=2)         21.69     19.22     16.9 
 H(Fragment=2)         20.6      18.69     17.81 
 O(Fragment=2)         21.46     22.51     22.05 
 H(Fragment=2)         21.17     22.94     22.85 
 H(Fragment=2)         20.82     21.82     21.9 
 O(Fragment=2)         17.42     17.42     19.95 
 H(Fragment=2)         17.27     16.89     19.16 
 H(Fragment=2)         18.3      17.77     19.84 
 O(Fragment=2)         20.28     17.24     22.94 
 H(Fragment=2)         20.26     16.32     22.69 
 H(Fragment=2)         20.2      17.71     22.11 
 O(Fragment=2)         21.4      16.34     20.15 
 H(Fragment=2)         20.56     16.1      19.75 
 H(Fragment=2)         21.76     17.       19.55 
 O(Fragment=2)         16.74     22.38     19.47 
 H(Fragment=2)         16.9      21.72     20.14 
 H(Fragment=2)         16.91     21.93     18.64 
 O(Fragment=2)         22.19     21.1      16.71 
 H(Fragment=2)         22.72     21.87     16.91 
 H(Fragment=2)         21.29     21.37     16.89 
 O(Fragment=2)         23.23     18.63     22.18 
 H(Fragment=2)         22.77     17.85     21.87 
 H(Fragment=2)         22.84     18.83     23.02 
 O(Fragment=2)         19.18     19.85     24.51 
 H(Fragment=2)         19.83     19.29     24.07 
 H(Fragment=2)         19.45     20.74     24.3 
 O(Fragment=2)         21.46     24.96     20.29 
 H(Fragment=2)         21.7      24.74     19.39 
 H(Fragment=2)         21.05     24.16     20.63 
 O(Fragment=2)         20.71     24.8      17.5 
 H(Fragment=2)         20.3      24.06     17.94 
 H(Fragment=2)         20.85     24.5      16.6 
 O(Fragment=2)         15.96     20.35     22.14 
 H(Fragment=2)         15.1      20.74     21.98 
 H(Fragment=2)         15.83     19.41     22.04 
 O(Fragment=2)         17.67     17.5      24.13 
 H(Fragment=2)         18.52     17.35     23.71 
 H(Fragment=2)         17.79     18.31     24.62 
 O(Fragment=2)         19.19     15.33     18.72 
 H(Fragment=2)         19.33     14.52     19.22 
 H(Fragment=2)         19.11     15.04     17.81 
 O(Fragment=2)         25.56     18.25     19.92 
 H(Fragment=2)         24.76     18.76     19.81 
 H(Fragment=2)         26.19     18.86     20.29 
 O(Fragment=2)         15.44     17.26     21.9 
 H(Fragment=2)         16.21     17.16     21.35 
 H(Fragment=2)         15.58     16.64     22.62 
 O(Fragment=2)         25.25     19.9      17.4 
 H(Fragment=2)         25.19     18.97     17.19 
 H(Fragment=2)         24.49     20.07     17.95 
 O(Fragment=2)         23.12     16.58     16.47 
 H(Fragment=2)         22.32     17.05     16.68 
 H(Fragment=2)         23.07     15.78     17. 
 O(Fragment=2)         24.69     23.52     21.27 
 H(Fragment=2)         25.3      23.1      20.67 
 H(Fragment=2)         23.87     23.05     21.16 
 O(Fragment=2)         16.94     17.27     16.84 
 H(Fragment=2)         17.05     17.78     16.04 
 H(Fragment=2)         17.27     16.4      16.61 
 O(Fragment=2)         20.61     18.49     14.24 
 H(Fragment=2)         20.59     18.24     15.16 
 H(Fragment=2)         21.41     18.99     14.14 
 O(Fragment=2)         22.27     19.34     24.62 
 H(Fragment=2)         22.08     18.64     25.25 
 H(Fragment=2)         22.78     19.98     25.12 
 O(Fragment=2)         19.46     21.42     14.79 
 H(Fragment=2)         19.79     20.53     14.66 
 H(Fragment=2)         18.59     21.41     14.39 
 O(Fragment=2)         17.24     25.32     21.24 
 H(Fragment=2)         17.4      25.9      20.5 
 H(Fragment=2)         16.92     24.51     20.85 
 O(Fragment=2)         21.68     14.05     21.61 
 H(Fragment=2)         20.74     14.       21.75 
 H(Fragment=2)         21.79     14.81     21.04 
 O(Fragment=2)         25.16     16.84     22.28 
 H(Fragment=2)         25.42     16.87     21.35 
 H(Fragment=2)         24.54     17.56     22.38 
 O(Fragment=2)         18.48     24.41     23.83 
 H(Fragment=2)         18.33     24.76     22.95 
 H(Fragment=2)         17.86     23.68     23.9 
 O(Fragment=2)         15.04     23.09     23.01 
 H(Fragment=2)         15.14     23.99     23.29 
 H(Fragment=2)         15.92     22.72     23.07 
 O(Fragment=2)         14.76     20.98     15.83 
 H(Fragment=2)         14.55     20.1      15.51 
 H(Fragment=2)         15.35     20.83     16.56 
 O(Fragment=2)         21.18     23.53     14.85 
 H(Fragment=2)         22.1      23.43     14.62 
 H(Fragment=2)         20.82     22.64     14.83 
 O(Fragment=2)         20.35     22.95     25.45 
 H(Fragment=2)         21.03     23.63     25.42 
 H(Fragment=2)         19.66     23.28     24.87 
 O(Fragment=2)         17.34     18.64     14.35 
 H(Fragment=2)         16.97     18.81     13.49 
 H(Fragment=2)         17.24     19.47     14.82 
 O(Fragment=2)         24.42     21.58     24.82 
 H(Fragment=2)         23.67     21.83     24.27 
 H(Fragment=2)         25.14     22.12     24.51 
 O(Fragment=2)         23.01     19.91     14.03 
 H(Fragment=2)         23.95     19.94     13.89 
 H(Fragment=2)         22.87     20.42     14.83 
 O(Fragment=2)         15.39     15.55     18.14 
 H(Fragment=2)         14.48     15.81     18.24 
 H(Fragment=2)         15.81     16.28     17.69 
 O(Fragment=2)         14.16     23.42     18.48 
 H(Fragment=2)         13.42     23.3      19.06 
 H(Fragment=2)         14.92     23.19     19.01 
 O(Fragment=2)         17.74     26.12     18.52 
 H(Fragment=2)         17.47     26.27     17.61 
 H(Fragment=2)         18.62     25.74     18.44 
 O(Fragment=2)         17.89     20.21     26.82 
 H(Fragment=2)         18.45     20.08     26.06 
 H(Fragment=2)         18.49     20.48     27.52 
 O(Fragment=2)         19.04     14.12     22.11 
 H(Fragment=2)         18.16     14.24     21.75 
 H(Fragment=2)         18.89     13.88     23.03 
 O(Fragment=2)         13.05     20.82     20.14 
 H(Fragment=2)         13.74     20.84     19.47 
 H(Fragment=2)         12.33     20.35     19.72 
 O(Fragment=2)         13.28     17.96     20.71 
 H(Fragment=2)         12.63     18.42     21.24 
 H(Fragment=2)         14.07     17.95     21.25 
 O(Fragment=2)         18.42     14.93     16.28 
 H(Fragment=2)         17.78     14.24     16.12 
 H(Fragment=2)         19.27     14.49     16.26 
 O(Fragment=2)         14.48     18.29     15.39 
 H(Fragment=2)         15.22     18.05     15.95 
 H(Fragment=2)         14.48     17.63     14.7 
 O(Fragment=2)         24.57     23.63     16.6 
 H(Fragment=2)         25.09     23.2      17.28 
 H(Fragment=2)         25.19     24.22     16.17 
 O(Fragment=2)         26.24     22.72     19.03 
 H(Fragment=2)         27.11     23.01     18.78 
 H(Fragment=2)         26.34     21.78     19.21 
 O(Fragment=2)         15.48     16.43     24.91 
 H(Fragment=2)         15.48     16.8      25.79 
 H(Fragment=2)         16.16     16.9      24.44 
 O(Fragment=2)         21.47     26.9      22.25 
 H(Fragment=2)         21.54     26.28     21.52 
 H(Fragment=2)         20.53     26.99     22.4 
 O(Fragment=2)         16.44     13.88     20.85 
 H(Fragment=2)         16.01     14.63     20.45 
 H(Fragment=2)         15.84     13.15     20.72 
 O(Fragment=2)         25.52     17.63     15.84 
 H(Fragment=2)         24.67     17.22     16.04 
 H(Fragment=2)         25.4      18.04     14.99 
 O(Fragment=2)         23.84     14.62     18.2 
 H(Fragment=2)         24.28     14.76     19.03 
 H(Fragment=2)         24.54     14.38     17.59 
 O(Fragment=2)         19.35     15.71     13.96 
 H(Fragment=2)         19.56     16.64     13.89 
 H(Fragment=2)         19.03     15.6      14.86 
 O(Fragment=2)         21.69     16.9      25.86 
 H(Fragment=2)         21.54     16.       25.55 
 H(Fragment=2)         22.53     16.86     26.31 
 O(Fragment=2)         25.6      20.86     14.92 
 H(Fragment=2)         25.44     20.58     15.83 
 H(Fragment=2)         26.55     20.93     14.85 
 O(Fragment=2)         17.02     21.7      13.8 
 H(Fragment=2)         16.16     21.96     14.11 
 H(Fragment=2)         17.2      22.31     13.07 
 O(Fragment=2)         18.55     15.82     26.57 
 H(Fragment=2)         19.12     16.45     26.11 
 H(Fragment=2)         19.04     15.59     27.35 
 O(Fragment=2)         22.16     26.78     16.26 
 H(Fragment=2)         21.87     26.14     16.91 
 H(Fragment=2)         21.37     27.28     16.05 
 O(Fragment=2)         25.01     26.19     20.4 
 H(Fragment=2)         24.85     25.31     20.73 
 H(Fragment=2)         25.96     26.29     20.44 
 O(Fragment=2)         19.69     12.76     19.53 
 H(Fragment=2)         19.58     12.35     20.38 
 H(Fragment=2)         19.34     12.13     18.9 
 O(Fragment=2)         20.9      13.82     16.27 
 H(Fragment=2)         21.12     12.91     16.44 
 H(Fragment=2)         21.43     14.06     15.5 
 O(Fragment=2)         20.87     26.3      24.89 
 H(Fragment=2)         20.64     27.23     24.97 
 H(Fragment=2)         20.4      26.       24.11 
 O(Fragment=2)         16.98     24.84     15.47 
 H(Fragment=2)         16.94     25.32     14.64 
 H(Fragment=2)         16.11     24.48     15.58 
 O(Fragment=2)         22.53     16.67     13.25 
 H(Fragment=2)         21.73     17.14     13.45 
 H(Fragment=2)         22.92     17.15     12.52 
 O(Fragment=2)         22.35     12.52     19.01 
 H(Fragment=2)         21.44     12.8      19.11 
 H(Fragment=2)         22.82     13.32     18.75 
 O(Fragment=2)         23.65     23.15     13.93 
 H(Fragment=2)         24.13     23.11     14.76 
 H(Fragment=2)         24.25     22.74     13.29 
 O(Fragment=2)         13.59     19.91     24.39 
 H(Fragment=2)         14.43     20.       24.84 
 H(Fragment=2)         13.06     19.37     24.98 
 O(Fragment=2)         14.36     23.94     15.78 
 H(Fragment=2)         14.57     23.79     16.71 
 H(Fragment=2)         14.06     23.08     15.47 
 O(Fragment=2)         19.35     24.26     13.18 
 H(Fragment=2)         20.04     24.19     13.84 
 H(Fragment=2)         18.54     24.1      13.67 
 O(Fragment=2)         12.86     16.63     18.44 
 H(Fragment=2)         13.16     17.16     19.18 
 H(Fragment=2)         12.14     16.11     18.79 
 O(Fragment=2)         13.51     14.99     21.15 
 H(Fragment=2)         13.88     15.83     20.89 
 H(Fragment=2)         13.2      15.13     22.05 
 O(Fragment=2)         26.       23.56     23.66 
 H(Fragment=2)         25.27     24.18     23.64 
 H(Fragment=2)         26.11     23.29     22.75 
 O(Fragment=2)         26.92     16.24     18.03 
 H(Fragment=2)         26.96     16.7      18.86 
 H(Fragment=2)         26.27     16.73     17.51 
 O(Fragment=2)         25.43     14.61     20.36 
 H(Fragment=2)         25.08     14.6      21.25 
 H(Fragment=2)         26.34     14.9      20.46 
 O(Fragment=2)         18.72     27.39     22.3 
 H(Fragment=2)         17.9      27.       21.99 
 H(Fragment=2)         18.45     28.09     22.89 
 O(Fragment=2)         24.85     14.79     24.43 
 H(Fragment=2)         25.71     14.44     24.19 
 H(Fragment=2)         24.76     15.59     23.91 
 O(Fragment=2)         15.99     12.88     18.16 
 H(Fragment=2)         16.65     13.25     18.75 
 H(Fragment=2)         15.57     13.64     17.77 
 O(Fragment=2)         23.97     25.47     23.93 
 H(Fragment=2)         23.06     25.73     24.08 
 H(Fragment=2)         24.42     26.29     23.73 
 O(Fragment=2)         15.1      20.03     26.49 
 H(Fragment=2)         14.6      19.37     26.97 
 H(Fragment=2)         16.01     19.75     26.58 
 O(Fragment=2)         27.72     19.9      20.69 
 H(Fragment=2)         28.03     20.12     21.56 
 H(Fragment=2)         28.4      19.33     20.32 
 O(Fragment=2)         19.33     18.77     11.43 
 H(Fragment=2)         19.58     18.74     12.36 
 H(Fragment=2)         20.1      19.13     10.99 
 O(Fragment=2)         23.75     12.25     21.23 
 H(Fragment=2)         23.68     11.94     20.33 
 H(Fragment=2)         23.07     12.93     21.3 
 O(Fragment=2)         19.23     23.13     28.1 
 H(Fragment=2)         19.88     23.64     28.58 
 H(Fragment=2)         19.67     22.86     27.3 
 O(Fragment=2)         21.88     19.7      27.64 
 H(Fragment=2)         22.02     18.79     27.9 
 H(Fragment=2)         21.04     19.93     28.05 
 O(Fragment=2)         22.85     22.19     27.67 
 H(Fragment=2)         22.9      21.35     27.22 
 H(Fragment=2)         21.98     22.52     27.47 
 O(Fragment=2)         16.06     22.75     27.06 
 H(Fragment=2)         16.94     22.43     27.29 
 H(Fragment=2)         15.79     22.21     26.33 
 O(Fragment=2)         12.56     22.63     23.88 
 H(Fragment=2)         13.46     22.71     23.56 
 H(Fragment=2)         12.55     21.8      24.34 
 O(Fragment=2)         27.17     18.77     23.7 
 H(Fragment=2)         27.47     18.95     24.59 
 H(Fragment=2)         26.7      17.94     23.77 
 O(Fragment=2)         19.52     28.81     19.54 
 H(Fragment=2)         18.71     29.32     19.55 
 H(Fragment=2)         19.24     27.91     19.41 
 O(Fragment=2)         17.32     25.69     26.26 
 H(Fragment=2)         17.86     25.04     25.81 
 H(Fragment=2)         17.93     26.4      26.48 
 O(Fragment=2)         27.8      16.03     20.89 
 H(Fragment=2)         28.63     16.36     21.24 
 H(Fragment=2)         27.14     16.62     21.25 
 O(Fragment=2)         22.12     20.25     11.48 
 H(Fragment=2)         22.34     20.55     12.36 
 H(Fragment=2)         22.64     20.81     10.9 
 O(Fragment=2)         22.07     14.07     25.2 
 H(Fragment=2)         22.76     13.94     24.54 
 H(Fragment=2)         22.53     14.43     25.96 
 O(Fragment=2)         26.36     20.19     26.35 
 H(Fragment=2)         26.93     20.91     26.09 
 H(Fragment=2)         25.53     20.36     25.9 
 O(Fragment=2)         23.01     14.32     14.44 
 H(Fragment=2)         22.85     15.19     14.08 
 H(Fragment=2)         23.92     14.33     14.72 
 O(Fragment=2)         11.45     19.17     22.7 
 H(Fragment=2)         11.05     20.01     22.48 
 H(Fragment=2)         12.29     19.4      23.1 
 O(Fragment=2)         15.38     25.41     24.34 
 H(Fragment=2)         14.79     26.11     24.61 
 H(Fragment=2)         15.95     25.27     25.1 
 O(Fragment=2)         24.23     27.67     18.02 
 H(Fragment=2)         23.46     27.38     17.54 
 H(Fragment=2)         24.38     26.98     18.67 
 O(Fragment=2)         19.59     26.86     14.78 
 H(Fragment=2)         19.21     26.1      14.33 
 H(Fragment=2)         18.86     27.21     15.3 
 O(Fragment=2)         21.11     11.66     23.27 
 H(Fragment=2)         21.52     12.49     23.53 
 H(Fragment=2)         21.55     11.42     22.46 
 O(Fragment=2)         11.41     18.45     17.05 
 H(Fragment=2)         11.39     18.09     16.16 
 H(Fragment=2)         12.17     18.03     17.46 
 O(Fragment=2)         17.18     13.07     24.02 
 H(Fragment=2)         16.78     12.9      24.87 
 H(Fragment=2)         16.55     12.7      23.39 
 O(Fragment=2)         28.03     21.27     23.08 
 H(Fragment=2)         27.79     20.45     23.51 
 H(Fragment=2)         28.12     21.9      23.8 
 O(Fragment=2)         16.45     16.95     27.8 
 H(Fragment=2)         17.17     16.56     27.31 
 H(Fragment=2)         15.93     16.2      28.1 
 O(Fragment=2)         13.34     15.1      23.96 
 H(Fragment=2)         14.23     15.26     24.29 
 H(Fragment=2)         12.77     15.46     24.64 
 O(Fragment=2)         22.45     25.6      26.9 
 H(Fragment=2)         21.93     26.03     27.57 
 H(Fragment=2)         22.       25.79     26.08 
 O(Fragment=2)         23.81     28.06     22.48 
 H(Fragment=2)         22.92     27.89     22.17 
 H(Fragment=2)         24.37     27.84     21.74 
 O(Fragment=2)         28.03     17.93     15.04 
 H(Fragment=2)         28.72     18.46     15.43 
 H(Fragment=2)         27.27     18.09     15.59 
 O(Fragment=2)         14.98     27.92     20.42 
 H(Fragment=2)         14.59     28.66     19.95 
 H(Fragment=2)         15.21     27.3      19.73 
 O(Fragment=2)         19.59     12.99     26.1 
 H(Fragment=2)         19.06     13.79     26.11 
 H(Fragment=2)         20.37     13.23     25.6 
 O(Fragment=2)         10.91     23.25     21.39 
 H(Fragment=2)         11.81     22.97     21.55 
 H(Fragment=2)         10.96     24.2      21.32 
 O(Fragment=2)         25.54     18.55     13.19 
 H(Fragment=2)         24.92     18.43     12.48 
 H(Fragment=2)         26.14     19.22     12.87 
 O(Fragment=2)         20.86     17.24     28.91 
 H(Fragment=2)         20.25     17.95     28.68 
 H(Fragment=2)         20.58     16.95     29.78 
 O(Fragment=2)         25.81     14.44     16.13 
 H(Fragment=2)         26.39     14.59     16.88 
 H(Fragment=2)         26.38     14.48     15.37 
 O(Fragment=2)         17.14     14.19     12.97 
 H(Fragment=2)         17.34     13.7      12.17 
 H(Fragment=2)         17.79     14.89     13. 
 O(Fragment=2)         23.76     16.23     27.21 
 H(Fragment=2)         24.41     15.54     27.17 
 H(Fragment=2)         23.76     16.52     28.12 
 O(Fragment=2)         15.09     16.13     13.53 
 H(Fragment=2)         14.42     15.66     14.03 
 H(Fragment=2)         15.76     15.47     13.35 
 O(Fragment=2)         17.53     27.74     16.07 
 H(Fragment=2)         17.97     28.26     16.73 
 H(Fragment=2)         16.85     28.31     15.71 
 O(Fragment=2)         22.69     25.52     12.73 
 H(Fragment=2)         23.01     24.63     12.86 
 H(Fragment=2)         21.76     25.47     12.96 
 O(Fragment=2)         17.17     12.67     15.36 
 H(Fragment=2)         16.89     13.33     14.72 
 H(Fragment=2)         16.35     12.31     15.7 
 O(Fragment=2)         11.07     23.7      17.26 
 H(Fragment=2)         11.86     23.47     17.75 
 H(Fragment=2)         10.6      22.87     17.17 
 O(Fragment=2)         24.88     24.03     27.45 
 H(Fragment=2)         24.41     23.22     27.66 
 H(Fragment=2)         24.36     24.43     26.75 
 O(Fragment=2)         12.03     25.85     21.47 
 H(Fragment=2)         11.48     26.17     20.75 
 H(Fragment=2)         12.91     25.8      21.09 
 O(Fragment=2)         12.01     18.02     14.02 
 H(Fragment=2)         12.47     17.66     13.26 
 H(Fragment=2)         12.7      18.3      14.61 
 O(Fragment=2)         13.43     22.35     13.25 
 H(Fragment=2)         13.18     21.79     13.99 
 H(Fragment=2)         13.01     21.94     12.5 
 O(Fragment=2)         18.89     15.32     11.09 
 H(Fragment=2)         19.19     16.02     11.66 
 H(Fragment=2)         19.41     14.56     11.35 
 
 NAtoms=    385 NQM=      385 NQMF=       0 NMMI=      0 NMMIF=      0
                NMic=       0 NMicF=      0.
                    Isotopes and Nuclear Properties:
 (Nuclear quadrupole moments (NQMom) in fm**2, nuclear magnetic moments (NMagM)
  in nuclear magnetons)

  Atom         1           2           3           4           5           6           7           8           9          10
 IAtWgt=          79          16           1           1          16           1           1          16           1           1
 AtmWgt=  78.9183361  15.9949146   1.0078250   1.0078250  15.9949146   1.0078250   1.0078250  15.9949146   1.0078250   1.0078250
 NucSpn=           3           0           1           1           0           1           1           0           1           1
 AtZEff=   0.0000000   0.0000000   0.0000000   0.0000000   0.0000000   0.0000000   0.0000000   0.0000000   0.0000000   0.0000000
 NQMom=   31.3000000   0.0000000   0.0000000   0.0000000   0.0000000   0.0000000   0.0000000   0.0000000   0.0000000   0.0000000
 NMagM=    2.1063990   0.0000000   2.7928460   2.7928460   0.0000000   2.7928460   2.7928460   0.0000000   2.7928460   2.7928460
 AtZNuc=  35.0000000   8.0000000   1.0000000   1.0000000   8.0000000   1.0000000   1.0000000   8.0000000   1.0000000   1.0000000

  Atom        11          12          13          14          15          16          17          18          19          20
 IAtWgt=          16           1           1          16           1           1          16           1           1          16
 AtmWgt=  15.9949146   1.0078250   1.0078250  15.9949146   1.0078250   1.0078250  15.9949146   1.0078250   1.0078250  15.9949146
 NucSpn=           0           1           1           0           1           1           0           1           1           0
 AtZEff=   0.0000000   0.0000000   0.0000000   0.0000000   0.0000000   0.0000000   0.0000000   0.0000000   0.0000000   0.0000000
 NQMom=    0.0000000   0.0000000   0.0000000   0.0000000   0.0000000   0.0000000   0.0000000   0.0000000   0.0000000   0.0000000
 NMagM=    0.0000000   2.7928460   2.7928460   0.0000000   2.7928460   2.7928460   0.0000000   2.7928460   2.7928460   0.0000000
 AtZNuc=   8.0000000   1.0000000   1.0000000   8.0000000   1.0000000   1.0000000   8.0000000   1.0000000   1.0000000   8.0000000

  Atom        21          22          23          24          25          26          27          28          29          30
 IAtWgt=           1           1          16           1           1          16           1           1          16           1
 AtmWgt=   1.0078250   1.0078250  15.9949146   1.0078250   1.0078250  15.9949146   1.0078250   1.0078250  15.9949146   1.0078250
 NucSpn=           1           1           0           1           1           0           1           1           0           1
 AtZEff=   0.0000000   0.0000000   0.0000000   0.0000000   0.0000000   0.0000000   0.0000000   0.0000000   0.0000000   0.0000000
 NQMom=    0.0000000   0.0000000   0.0000000   0.0000000   0.0000000   0.0000000   0.0000000   0.0000000   0.0000000   0.0000000
 NMagM=    2.7928460   2.7928460   0.0000000   2.7928460   2.7928460   0.0000000   2.7928460   2.7928460   0.0000000   2.7928460
 AtZNuc=   1.0000000   1.0000000   8.0000000   1.0000000   1.0000000   8.0000000   1.0000000   1.0000000   8.0000000   1.0000000

  Atom        31          32          33          34          35          36          37          38          39          40
 IAtWgt=           1          16           1           1          16           1           1          16           1           1
 AtmWgt=   1.0078250  15.9949146   1.0078250   1.0078250  15.9949146   1.0078250   1.0078250  15.9949146   1.0078250   1.0078250
 NucSpn=           1           0           1           1           0           1           1           0           1           1
 AtZEff=   0.0000000   0.0000000   0.0000000   0.0000000   0.0000000   0.0000000   0.0000000   0.0000000   0.0000000   0.0000000
 NQMom=    0.0000000   0.0000000   0.0000000   0.0000000   0.0000000   0.0000000   0.0000000   0.0000000   0.0000000   0.0000000
 NMagM=    2.7928460   0.0000000   2.7928460   2.7928460   0.0000000   2.7928460   2.7928460   0.0000000   2.7928460   2.7928460
 AtZNuc=   1.0000000   8.0000000   1.0000000   1.0000000   8.0000000   1.0000000   1.0000000   8.0000000   1.0000000   1.0000000

  Atom        41          42          43          44          45          46          47          48          49          50
 IAtWgt=          16           1           1          16           1           1          16           1           1          16
 AtmWgt=  15.9949146   1.0078250   1.0078250  15.9949146   1.0078250   1.0078250  15.9949146   1.0078250   1.0078250  15.9949146
 NucSpn=           0           1           1           0           1           1           0           1           1           0
 AtZEff=   0.0000000   0.0000000   0.0000000   0.0000000   0.0000000   0.0000000   0.0000000   0.0000000   0.0000000   0.0000000
 NQMom=    0.0000000   0.0000000   0.0000000   0.0000000   0.0000000   0.0000000   0.0000000   0.0000000   0.0000000   0.0000000
 NMagM=    0.0000000   2.7928460   2.7928460   0.0000000   2.7928460   2.7928460   0.0000000   2.7928460   2.7928460   0.0000000
 AtZNuc=   8.0000000   1.0000000   1.0000000   8.0000000   1.0000000   1.0000000   8.0000000   1.0000000   1.0000000   8.0000000

  Atom        51          52          53          54          55          56          57          58          59          60
 IAtWgt=           1           1          16           1           1          16           1           1          16           1
 AtmWgt=   1.0078250   1.0078250  15.9949146   1.0078250   1.0078250  15.9949146   1.0078250   1.0078250  15.9949146   1.0078250
 NucSpn=           1           1           0           1           1           0           1           1           0           1
 AtZEff=   0.0000000   0.0000000   0.0000000   0.0000000   0.0000000   0.0000000   0.0000000   0.0000000   0.0000000   0.0000000
 NQMom=    0.0000000   0.0000000   0.0000000   0.0000000   0.0000000   0.0000000   0.0000000   0.0000000   0.0000000   0.0000000
 NMagM=    2.7928460   2.7928460   0.0000000   2.7928460   2.7928460   0.0000000   2.7928460   2.7928460   0.0000000   2.7928460
 AtZNuc=   1.0000000   1.0000000   8.0000000   1.0000000   1.0000000   8.0000000   1.0000000   1.0000000   8.0000000   1.0000000

  Atom        61          62          63          64          65          66          67          68          69          70
 IAtWgt=           1          16           1           1          16           1           1          16           1           1
 AtmWgt=   1.0078250  15.9949146   1.0078250   1.0078250  15.9949146   1.0078250   1.0078250  15.9949146   1.0078250   1.0078250
 NucSpn=           1           0           1           1           0           1           1           0           1           1
 AtZEff=   0.0000000   0.0000000   0.0000000   0.0000000   0.0000000   0.0000000   0.0000000   0.0000000   0.0000000   0.0000000
 NQMom=    0.0000000   0.0000000   0.0000000   0.0000000   0.0000000   0.0000000   0.0000000   0.0000000   0.0000000   0.0000000
 NMagM=    2.7928460   0.0000000   2.7928460   2.7928460   0.0000000   2.7928460   2.7928460   0.0000000   2.7928460   2.7928460
 AtZNuc=   1.0000000   8.0000000   1.0000000   1.0000000   8.0000000   1.0000000   1.0000000   8.0000000   1.0000000   1.0000000

  Atom        71          72          73          74          75          76          77          78          79          80
 IAtWgt=          16           1           1          16           1           1          16           1           1          16
 AtmWgt=  15.9949146   1.0078250   1.0078250  15.9949146   1.0078250   1.0078250  15.9949146   1.0078250   1.0078250  15.9949146
 NucSpn=           0           1           1           0           1           1           0           1           1           0
 AtZEff=   0.0000000   0.0000000   0.0000000   0.0000000   0.0000000   0.0000000   0.0000000   0.0000000   0.0000000   0.0000000
 NQMom=    0.0000000   0.0000000   0.0000000   0.0000000   0.0000000   0.0000000   0.0000000   0.0000000   0.0000000   0.0000000
 NMagM=    0.0000000   2.7928460   2.7928460   0.0000000   2.7928460   2.7928460   0.0000000   2.7928460   2.7928460   0.0000000
 AtZNuc=   8.0000000   1.0000000   1.0000000   8.0000000   1.0000000   1.0000000   8.0000000   1.0000000   1.0000000   8.0000000

  Atom        81          82          83          84          85          86          87          88          89          90
 IAtWgt=           1           1          16           1           1          16           1           1          16           1
 AtmWgt=   1.0078250   1.0078250  15.9949146   1.0078250   1.0078250  15.9949146   1.0078250   1.0078250  15.9949146   1.0078250
 NucSpn=           1           1           0           1           1           0           1           1           0           1
 AtZEff=   0.0000000   0.0000000   0.0000000   0.0000000   0.0000000   0.0000000   0.0000000   0.0000000   0.0000000   0.0000000
 NQMom=    0.0000000   0.0000000   0.0000000   0.0000000   0.0000000   0.0000000   0.0000000   0.0000000   0.0000000   0.0000000
 NMagM=    2.7928460   2.7928460   0.0000000   2.7928460   2.7928460   0.0000000   2.7928460   2.7928460   0.0000000   2.7928460
 AtZNuc=   1.0000000   1.0000000   8.0000000   1.0000000   1.0000000   8.0000000   1.0000000   1.0000000   8.0000000   1.0000000

  Atom        91          92          93          94          95          96          97          98          99         100
 IAtWgt=           1          16           1           1          16           1           1          16           1           1
 AtmWgt=   1.0078250  15.9949146   1.0078250   1.0078250  15.9949146   1.0078250   1.0078250  15.9949146   1.0078250   1.0078250
 NucSpn=           1           0           1           1           0           1           1           0           1           1
 AtZEff=   0.0000000   0.0000000   0.0000000   0.0000000   0.0000000   0.0000000   0.0000000   0.0000000   0.0000000   0.0000000
 NQMom=    0.0000000   0.0000000   0.0000000   0.0000000   0.0000000   0.0000000   0.0000000   0.0000000   0.0000000   0.0000000
 NMagM=    2.7928460   0.0000000   2.7928460   2.7928460   0.0000000   2.7928460   2.7928460   0.0000000   2.7928460   2.7928460
 AtZNuc=   1.0000000   8.0000000   1.0000000   1.0000000   8.0000000   1.0000000   1.0000000   8.0000000   1.0000000   1.0000000

  Atom       101         102         103         104         105         106         107         108         109         110
 IAtWgt=          16           1           1          16           1           1          16           1           1          16
 AtmWgt=  15.9949146   1.0078250   1.0078250  15.9949146   1.0078250   1.0078250  15.9949146   1.0078250   1.0078250  15.9949146
 NucSpn=           0           1           1           0           1           1           0           1           1           0
 AtZEff=   0.0000000   0.0000000   0.0000000   0.0000000   0.0000000   0.0000000   0.0000000   0.0000000   0.0000000   0.0000000
 NQMom=    0.0000000   0.0000000   0.0000000   0.0000000   0.0000000   0.0000000   0.0000000   0.0000000   0.0000000   0.0000000
 NMagM=    0.0000000   2.7928460   2.7928460   0.0000000   2.7928460   2.7928460   0.0000000   2.7928460   2.7928460   0.0000000
 AtZNuc=   8.0000000   1.0000000   1.0000000   8.0000000   1.0000000   1.0000000   8.0000000   1.0000000   1.0000000   8.0000000

  Atom       111         112         113         114         115         116         117         118         119         120
 IAtWgt=           1           1          16           1           1          16           1           1          16           1
 AtmWgt=   1.0078250   1.0078250  15.9949146   1.0078250   1.0078250  15.9949146   1.0078250   1.0078250  15.9949146   1.0078250
 NucSpn=           1           1           0           1           1           0           1           1           0           1
 AtZEff=   0.0000000   0.0000000   0.0000000   0.0000000   0.0000000   0.0000000   0.0000000   0.0000000   0.0000000   0.0000000
 NQMom=    0.0000000   0.0000000   0.0000000   0.0000000   0.0000000   0.0000000   0.0000000   0.0000000   0.0000000   0.0000000
 NMagM=    2.7928460   2.7928460   0.0000000   2.7928460   2.7928460   0.0000000   2.7928460   2.7928460   0.0000000   2.7928460
 AtZNuc=   1.0000000   1.0000000   8.0000000   1.0000000   1.0000000   8.0000000   1.0000000   1.0000000   8.0000000   1.0000000

  Atom       121         122         123         124         125         126         127         128         129         130
 IAtWgt=           1          16           1           1          16           1           1          16           1           1
 AtmWgt=   1.0078250  15.9949146   1.0078250   1.0078250  15.9949146   1.0078250   1.0078250  15.9949146   1.0078250   1.0078250
 NucSpn=           1           0           1           1           0           1           1           0           1           1
 AtZEff=   0.0000000   0.0000000   0.0000000   0.0000000   0.0000000   0.0000000   0.0000000   0.0000000   0.0000000   0.0000000
 NQMom=    0.0000000   0.0000000   0.0000000   0.0000000   0.0000000   0.0000000   0.0000000   0.0000000   0.0000000   0.0000000
 NMagM=    2.7928460   0.0000000   2.7928460   2.7928460   0.0000000   2.7928460   2.7928460   0.0000000   2.7928460   2.7928460
 AtZNuc=   1.0000000   8.0000000   1.0000000   1.0000000   8.0000000   1.0000000   1.0000000   8.0000000   1.0000000   1.0000000

  Atom       131         132         133         134         135         136         137         138         139         140
 IAtWgt=          16           1           1          16           1           1          16           1           1          16
 AtmWgt=  15.9949146   1.0078250   1.0078250  15.9949146   1.0078250   1.0078250  15.9949146   1.0078250   1.0078250  15.9949146
 NucSpn=           0           1           1           0           1           1           0           1           1           0
 AtZEff=   0.0000000   0.0000000   0.0000000   0.0000000   0.0000000   0.0000000   0.0000000   0.0000000   0.0000000   0.0000000
 NQMom=    0.0000000   0.0000000   0.0000000   0.0000000   0.0000000   0.0000000   0.0000000   0.0000000   0.0000000   0.0000000
 NMagM=    0.0000000   2.7928460   2.7928460   0.0000000   2.7928460   2.7928460   0.0000000   2.7928460   2.7928460   0.0000000
 AtZNuc=   8.0000000   1.0000000   1.0000000   8.0000000   1.0000000   1.0000000   8.0000000   1.0000000   1.0000000   8.0000000

  Atom       141         142         143         144         145         146         147         148         149         150
 IAtWgt=           1           1          16           1           1          16           1           1          16           1
 AtmWgt=   1.0078250   1.0078250  15.9949146   1.0078250   1.0078250  15.9949146   1.0078250   1.0078250  15.9949146   1.0078250
 NucSpn=           1           1           0           1           1           0           1           1           0           1
 AtZEff=   0.0000000   0.0000000   0.0000000   0.0000000   0.0000000   0.0000000   0.0000000   0.0000000   0.0000000   0.0000000
 NQMom=    0.0000000   0.0000000   0.0000000   0.0000000   0.0000000   0.0000000   0.0000000   0.0000000   0.0000000   0.0000000
 NMagM=    2.7928460   2.7928460   0.0000000   2.7928460   2.7928460   0.0000000   2.7928460   2.7928460   0.0000000   2.7928460
 AtZNuc=   1.0000000   1.0000000   8.0000000   1.0000000   1.0000000   8.0000000   1.0000000   1.0000000   8.0000000   1.0000000

  Atom       151         152         153         154         155         156         157         158         159         160
 IAtWgt=           1          16           1           1          16           1           1          16           1           1
 AtmWgt=   1.0078250  15.9949146   1.0078250   1.0078250  15.9949146   1.0078250   1.0078250  15.9949146   1.0078250   1.0078250
 NucSpn=           1           0           1           1           0           1           1           0           1           1
 AtZEff=   0.0000000   0.0000000   0.0000000   0.0000000   0.0000000   0.0000000   0.0000000   0.0000000   0.0000000   0.0000000
 NQMom=    0.0000000   0.0000000   0.0000000   0.0000000   0.0000000   0.0000000   0.0000000   0.0000000   0.0000000   0.0000000
 NMagM=    2.7928460   0.0000000   2.7928460   2.7928460   0.0000000   2.7928460   2.7928460   0.0000000   2.7928460   2.7928460
 AtZNuc=   1.0000000   8.0000000   1.0000000   1.0000000   8.0000000   1.0000000   1.0000000   8.0000000   1.0000000   1.0000000

  Atom       161         162         163         164         165         166         167         168         169         170
 IAtWgt=          16           1           1          16           1           1          16           1           1          16
 AtmWgt=  15.9949146   1.0078250   1.0078250  15.9949146   1.0078250   1.0078250  15.9949146   1.0078250   1.0078250  15.9949146
 NucSpn=           0           1           1           0           1           1           0           1           1           0
 AtZEff=   0.0000000   0.0000000   0.0000000   0.0000000   0.0000000   0.0000000   0.0000000   0.0000000   0.0000000   0.0000000
 NQMom=    0.0000000   0.0000000   0.0000000   0.0000000   0.0000000   0.0000000   0.0000000   0.0000000   0.0000000   0.0000000
 NMagM=    0.0000000   2.7928460   2.7928460   0.0000000   2.7928460   2.7928460   0.0000000   2.7928460   2.7928460   0.0000000
 AtZNuc=   8.0000000   1.0000000   1.0000000   8.0000000   1.0000000   1.0000000   8.0000000   1.0000000   1.0000000   8.0000000

  Atom       171         172         173         174         175         176         177         178         179         180
 IAtWgt=           1           1          16           1           1          16           1           1          16           1
 AtmWgt=   1.0078250   1.0078250  15.9949146   1.0078250   1.0078250  15.9949146   1.0078250   1.0078250  15.9949146   1.0078250
 NucSpn=           1           1           0           1           1           0           1           1           0           1
 AtZEff=   0.0000000   0.0000000   0.0000000   0.0000000   0.0000000   0.0000000   0.0000000   0.0000000   0.0000000   0.0000000
 NQMom=    0.0000000   0.0000000   0.0000000   0.0000000   0.0000000   0.0000000   0.0000000   0.0000000   0.0000000   0.0000000
 NMagM=    2.7928460   2.7928460   0.0000000   2.7928460   2.7928460   0.0000000   2.7928460   2.7928460   0.0000000   2.7928460
 AtZNuc=   1.0000000   1.0000000   8.0000000   1.0000000   1.0000000   8.0000000   1.0000000   1.0000000   8.0000000   1.0000000

  Atom       181         182         183         184         185         186         187         188         189         190
 IAtWgt=           1          16           1           1          16           1           1          16           1           1
 AtmWgt=   1.0078250  15.9949146   1.0078250   1.0078250  15.9949146   1.0078250   1.0078250  15.9949146   1.0078250   1.0078250
 NucSpn=           1           0           1           1           0           1           1           0           1           1
 AtZEff=   0.0000000   0.0000000   0.0000000   0.0000000   0.0000000   0.0000000   0.0000000   0.0000000   0.0000000   0.0000000
 NQMom=    0.0000000   0.0000000   0.0000000   0.0000000   0.0000000   0.0000000   0.0000000   0.0000000   0.0000000   0.0000000
 NMagM=    2.7928460   0.0000000   2.7928460   2.7928460   0.0000000   2.7928460   2.7928460   0.0000000   2.7928460   2.7928460
 AtZNuc=   1.0000000   8.0000000   1.0000000   1.0000000   8.0000000   1.0000000   1.0000000   8.0000000   1.0000000   1.0000000

  Atom       191         192         193         194         195         196         197         198         199         200
 IAtWgt=          16           1           1          16           1           1          16           1           1          16
 AtmWgt=  15.9949146   1.0078250   1.0078250  15.9949146   1.0078250   1.0078250  15.9949146   1.0078250   1.0078250  15.9949146
 NucSpn=           0           1           1           0           1           1           0           1           1           0
 AtZEff=   0.0000000   0.0000000   0.0000000   0.0000000   0.0000000   0.0000000   0.0000000   0.0000000   0.0000000   0.0000000
 NQMom=    0.0000000   0.0000000   0.0000000   0.0000000   0.0000000   0.0000000   0.0000000   0.0000000   0.0000000   0.0000000
 NMagM=    0.0000000   2.7928460   2.7928460   0.0000000   2.7928460   2.7928460   0.0000000   2.7928460   2.7928460   0.0000000
 AtZNuc=   8.0000000   1.0000000   1.0000000   8.0000000   1.0000000   1.0000000   8.0000000   1.0000000   1.0000000   8.0000000

  Atom       201         202         203         204         205         206         207         208         209         210
 IAtWgt=           1           1          16           1           1          16           1           1          16           1
 AtmWgt=   1.0078250   1.0078250  15.9949146   1.0078250   1.0078250  15.9949146   1.0078250   1.0078250  15.9949146   1.0078250
 NucSpn=           1           1           0           1           1           0           1           1           0           1
 AtZEff=   0.0000000   0.0000000   0.0000000   0.0000000   0.0000000   0.0000000   0.0000000   0.0000000   0.0000000   0.0000000
 NQMom=    0.0000000   0.0000000   0.0000000   0.0000000   0.0000000   0.0000000   0.0000000   0.0000000   0.0000000   0.0000000
 NMagM=    2.7928460   2.7928460   0.0000000   2.7928460   2.7928460   0.0000000   2.7928460   2.7928460   0.0000000   2.7928460
 AtZNuc=   1.0000000   1.0000000   8.0000000   1.0000000   1.0000000   8.0000000   1.0000000   1.0000000   8.0000000   1.0000000

  Atom       211         212         213         214         215         216         217         218         219         220
 IAtWgt=           1          16           1           1          16           1           1          16           1           1
 AtmWgt=   1.0078250  15.9949146   1.0078250   1.0078250  15.9949146   1.0078250   1.0078250  15.9949146   1.0078250   1.0078250
 NucSpn=           1           0           1           1           0           1           1           0           1           1
 AtZEff=   0.0000000   0.0000000   0.0000000   0.0000000   0.0000000   0.0000000   0.0000000   0.0000000   0.0000000   0.0000000
 NQMom=    0.0000000   0.0000000   0.0000000   0.0000000   0.0000000   0.0000000   0.0000000   0.0000000   0.0000000   0.0000000
 NMagM=    2.7928460   0.0000000   2.7928460   2.7928460   0.0000000   2.7928460   2.7928460   0.0000000   2.7928460   2.7928460
 AtZNuc=   1.0000000   8.0000000   1.0000000   1.0000000   8.0000000   1.0000000   1.0000000   8.0000000   1.0000000   1.0000000

  Atom       221         222         223         224         225         226         227         228         229         230
 IAtWgt=          16           1           1          16           1           1          16           1           1          16
 AtmWgt=  15.9949146   1.0078250   1.0078250  15.9949146   1.0078250   1.0078250  15.9949146   1.0078250   1.0078250  15.9949146
 NucSpn=           0           1           1           0           1           1           0           1           1           0
 AtZEff=   0.0000000   0.0000000   0.0000000   0.0000000   0.0000000   0.0000000   0.0000000   0.0000000   0.0000000   0.0000000
 NQMom=    0.0000000   0.0000000   0.0000000   0.0000000   0.0000000   0.0000000   0.0000000   0.0000000   0.0000000   0.0000000
 NMagM=    0.0000000   2.7928460   2.7928460   0.0000000   2.7928460   2.7928460   0.0000000   2.7928460   2.7928460   0.0000000
 AtZNuc=   8.0000000   1.0000000   1.0000000   8.0000000   1.0000000   1.0000000   8.0000000   1.0000000   1.0000000   8.0000000

  Atom       231         232         233         234         235         236         237         238         239         240
 IAtWgt=           1           1          16           1           1          16           1           1          16           1
 AtmWgt=   1.0078250   1.0078250  15.9949146   1.0078250   1.0078250  15.9949146   1.0078250   1.0078250  15.9949146   1.0078250
 NucSpn=           1           1           0           1           1           0           1           1           0           1
 AtZEff=   0.0000000   0.0000000   0.0000000   0.0000000   0.0000000   0.0000000   0.0000000   0.0000000   0.0000000   0.0000000
 NQMom=    0.0000000   0.0000000   0.0000000   0.0000000   0.0000000   0.0000000   0.0000000   0.0000000   0.0000000   0.0000000
 NMagM=    2.7928460   2.7928460   0.0000000   2.7928460   2.7928460   0.0000000   2.7928460   2.7928460   0.0000000   2.7928460
 AtZNuc=   1.0000000   1.0000000   8.0000000   1.0000000   1.0000000   8.0000000   1.0000000   1.0000000   8.0000000   1.0000000

  Atom       241         242         243         244         245         246         247         248         249         250
 IAtWgt=           1          16           1           1          16           1           1          16           1           1
 AtmWgt=   1.0078250  15.9949146   1.0078250   1.0078250  15.9949146   1.0078250   1.0078250  15.9949146   1.0078250   1.0078250
 NucSpn=           1           0           1           1           0           1           1           0           1           1
 AtZEff=   0.0000000   0.0000000   0.0000000   0.0000000   0.0000000   0.0000000   0.0000000   0.0000000   0.0000000   0.0000000
 NQMom=    0.0000000   0.0000000   0.0000000   0.0000000   0.0000000   0.0000000   0.0000000   0.0000000   0.0000000   0.0000000
 NMagM=    2.7928460   0.0000000   2.7928460   2.7928460   0.0000000   2.7928460   2.7928460   0.0000000   2.7928460   2.7928460
 AtZNuc=   1.0000000   8.0000000   1.0000000   1.0000000   8.0000000   1.0000000   1.0000000   8.0000000   1.0000000   1.0000000

  Atom       251         252         253         254         255         256         257         258         259         260
 IAtWgt=          16           1           1          16           1           1          16           1           1          16
 AtmWgt=  15.9949146   1.0078250   1.0078250  15.9949146   1.0078250   1.0078250  15.9949146   1.0078250   1.0078250  15.9949146
 NucSpn=           0           1           1           0           1           1           0           1           1           0
 AtZEff=   0.0000000   0.0000000   0.0000000   0.0000000   0.0000000   0.0000000   0.0000000   0.0000000   0.0000000   0.0000000
 NQMom=    0.0000000   0.0000000   0.0000000   0.0000000   0.0000000   0.0000000   0.0000000   0.0000000   0.0000000   0.0000000
 NMagM=    0.0000000   2.7928460   2.7928460   0.0000000   2.7928460   2.7928460   0.0000000   2.7928460   2.7928460   0.0000000
 AtZNuc=   8.0000000   1.0000000   1.0000000   8.0000000   1.0000000   1.0000000   8.0000000   1.0000000   1.0000000   8.0000000

  Atom       261         262         263         264         265         266         267         268         269         270
 IAtWgt=           1           1          16           1           1          16           1           1          16           1
 AtmWgt=   1.0078250   1.0078250  15.9949146   1.0078250   1.0078250  15.9949146   1.0078250   1.0078250  15.9949146   1.0078250
 NucSpn=           1           1           0           1           1           0           1           1           0           1
 AtZEff=   0.0000000   0.0000000   0.0000000   0.0000000   0.0000000   0.0000000   0.0000000   0.0000000   0.0000000   0.0000000
 NQMom=    0.0000000   0.0000000   0.0000000   0.0000000   0.0000000   0.0000000   0.0000000   0.0000000   0.0000000   0.0000000
 NMagM=    2.7928460   2.7928460   0.0000000   2.7928460   2.7928460   0.0000000   2.7928460   2.7928460   0.0000000   2.7928460
 AtZNuc=   1.0000000   1.0000000   8.0000000   1.0000000   1.0000000   8.0000000   1.0000000   1.0000000   8.0000000   1.0000000

  Atom       271         272         273         274         275         276         277         278         279         280
 IAtWgt=           1          16           1           1          16           1           1          16           1           1
 AtmWgt=   1.0078250  15.9949146   1.0078250   1.0078250  15.9949146   1.0078250   1.0078250  15.9949146   1.0078250   1.0078250
 NucSpn=           1           0           1           1           0           1           1           0           1           1
 AtZEff=   0.0000000   0.0000000   0.0000000   0.0000000   0.0000000   0.0000000   0.0000000   0.0000000   0.0000000   0.0000000
 NQMom=    0.0000000   0.0000000   0.0000000   0.0000000   0.0000000   0.0000000   0.0000000   0.0000000   0.0000000   0.0000000
 NMagM=    2.7928460   0.0000000   2.7928460   2.7928460   0.0000000   2.7928460   2.7928460   0.0000000   2.7928460   2.7928460
 AtZNuc=   1.0000000   8.0000000   1.0000000   1.0000000   8.0000000   1.0000000   1.0000000   8.0000000   1.0000000   1.0000000

  Atom       281         282         283         284         285         286         287         288         289         290
 IAtWgt=          16           1           1          16           1           1          16           1           1          16
 AtmWgt=  15.9949146   1.0078250   1.0078250  15.9949146   1.0078250   1.0078250  15.9949146   1.0078250   1.0078250  15.9949146
 NucSpn=           0           1           1           0           1           1           0           1           1           0
 AtZEff=   0.0000000   0.0000000   0.0000000   0.0000000   0.0000000   0.0000000   0.0000000   0.0000000   0.0000000   0.0000000
 NQMom=    0.0000000   0.0000000   0.0000000   0.0000000   0.0000000   0.0000000   0.0000000   0.0000000   0.0000000   0.0000000
 NMagM=    0.0000000   2.7928460   2.7928460   0.0000000   2.7928460   2.7928460   0.0000000   2.7928460   2.7928460   0.0000000
 AtZNuc=   8.0000000   1.0000000   1.0000000   8.0000000   1.0000000   1.0000000   8.0000000   1.0000000   1.0000000   8.0000000

  Atom       291         292         293         294         295         296         297         298         299         300
 IAtWgt=           1           1          16           1           1          16           1           1          16           1
 AtmWgt=   1.0078250   1.0078250  15.9949146   1.0078250   1.0078250  15.9949146   1.0078250   1.0078250  15.9949146   1.0078250
 NucSpn=           1           1           0           1           1           0           1           1           0           1
 AtZEff=   0.0000000   0.0000000   0.0000000   0.0000000   0.0000000   0.0000000   0.0000000   0.0000000   0.0000000   0.0000000
 NQMom=    0.0000000   0.0000000   0.0000000   0.0000000   0.0000000   0.0000000   0.0000000   0.0000000   0.0000000   0.0000000
 NMagM=    2.7928460   2.7928460   0.0000000   2.7928460   2.7928460   0.0000000   2.7928460   2.7928460   0.0000000   2.7928460
 AtZNuc=   1.0000000   1.0000000   8.0000000   1.0000000   1.0000000   8.0000000   1.0000000   1.0000000   8.0000000   1.0000000

  Atom       301         302         303         304         305         306         307         308         309         310
 IAtWgt=           1          16           1           1          16           1           1          16           1           1
 AtmWgt=   1.0078250  15.9949146   1.0078250   1.0078250  15.9949146   1.0078250   1.0078250  15.9949146   1.0078250   1.0078250
 NucSpn=           1           0           1           1           0           1           1           0           1           1
 AtZEff=   0.0000000   0.0000000   0.0000000   0.0000000   0.0000000   0.0000000   0.0000000   0.0000000   0.0000000   0.0000000
 NQMom=    0.0000000   0.0000000   0.0000000   0.0000000   0.0000000   0.0000000   0.0000000   0.0000000   0.0000000   0.0000000
 NMagM=    2.7928460   0.0000000   2.7928460   2.7928460   0.0000000   2.7928460   2.7928460   0.0000000   2.7928460   2.7928460
 AtZNuc=   1.0000000   8.0000000   1.0000000   1.0000000   8.0000000   1.0000000   1.0000000   8.0000000   1.0000000   1.0000000

  Atom       311         312         313         314         315         316         317         318         319         320
 IAtWgt=          16           1           1          16           1           1          16           1           1          16
 AtmWgt=  15.9949146   1.0078250   1.0078250  15.9949146   1.0078250   1.0078250  15.9949146   1.0078250   1.0078250  15.9949146
 NucSpn=           0           1           1           0           1           1           0           1           1           0
 AtZEff=   0.0000000   0.0000000   0.0000000   0.0000000   0.0000000   0.0000000   0.0000000   0.0000000   0.0000000   0.0000000
 NQMom=    0.0000000   0.0000000   0.0000000   0.0000000   0.0000000   0.0000000   0.0000000   0.0000000   0.0000000   0.0000000
 NMagM=    0.0000000   2.7928460   2.7928460   0.0000000   2.7928460   2.7928460   0.0000000   2.7928460   2.7928460   0.0000000
 AtZNuc=   8.0000000   1.0000000   1.0000000   8.0000000   1.0000000   1.0000000   8.0000000   1.0000000   1.0000000   8.0000000

  Atom       321         322         323         324         325         326         327         328         329         330
 IAtWgt=           1           1          16           1           1          16           1           1          16           1
 AtmWgt=   1.0078250   1.0078250  15.9949146   1.0078250   1.0078250  15.9949146   1.0078250   1.0078250  15.9949146   1.0078250
 NucSpn=           1           1           0           1           1           0           1           1           0           1
 AtZEff=   0.0000000   0.0000000   0.0000000   0.0000000   0.0000000   0.0000000   0.0000000   0.0000000   0.0000000   0.0000000
 NQMom=    0.0000000   0.0000000   0.0000000   0.0000000   0.0000000   0.0000000   0.0000000   0.0000000   0.0000000   0.0000000
 NMagM=    2.7928460   2.7928460   0.0000000   2.7928460   2.7928460   0.0000000   2.7928460   2.7928460   0.0000000   2.7928460
 AtZNuc=   1.0000000   1.0000000   8.0000000   1.0000000   1.0000000   8.0000000   1.0000000   1.0000000   8.0000000   1.0000000

  Atom       331         332         333         334         335         336         337         338         339         340
 IAtWgt=           1          16           1           1          16           1           1          16           1           1
 AtmWgt=   1.0078250  15.9949146   1.0078250   1.0078250  15.9949146   1.0078250   1.0078250  15.9949146   1.0078250   1.0078250
 NucSpn=           1           0           1           1           0           1           1           0           1           1
 AtZEff=   0.0000000   0.0000000   0.0000000   0.0000000   0.0000000   0.0000000   0.0000000   0.0000000   0.0000000   0.0000000
 NQMom=    0.0000000   0.0000000   0.0000000   0.0000000   0.0000000   0.0000000   0.0000000   0.0000000   0.0000000   0.0000000
 NMagM=    2.7928460   0.0000000   2.7928460   2.7928460   0.0000000   2.7928460   2.7928460   0.0000000   2.7928460   2.7928460
 AtZNuc=   1.0000000   8.0000000   1.0000000   1.0000000   8.0000000   1.0000000   1.0000000   8.0000000   1.0000000   1.0000000

  Atom       341         342         343         344         345         346         347         348         349         350
 IAtWgt=          16           1           1          16           1           1          16           1           1          16
 AtmWgt=  15.9949146   1.0078250   1.0078250  15.9949146   1.0078250   1.0078250  15.9949146   1.0078250   1.0078250  15.9949146
 NucSpn=           0           1           1           0           1           1           0           1           1           0
 AtZEff=   0.0000000   0.0000000   0.0000000   0.0000000   0.0000000   0.0000000   0.0000000   0.0000000   0.0000000   0.0000000
 NQMom=    0.0000000   0.0000000   0.0000000   0.0000000   0.0000000   0.0000000   0.0000000   0.0000000   0.0000000   0.0000000
 NMagM=    0.0000000   2.7928460   2.7928460   0.0000000   2.7928460   2.7928460   0.0000000   2.7928460   2.7928460   0.0000000
 AtZNuc=   8.0000000   1.0000000   1.0000000   8.0000000   1.0000000   1.0000000   8.0000000   1.0000000   1.0000000   8.0000000

  Atom       351         352         353         354         355         356         357         358         359         360
 IAtWgt=           1           1          16           1           1          16           1           1          16           1
 AtmWgt=   1.0078250   1.0078250  15.9949146   1.0078250   1.0078250  15.9949146   1.0078250   1.0078250  15.9949146   1.0078250
 NucSpn=           1           1           0           1           1           0           1           1           0           1
 AtZEff=   0.0000000   0.0000000   0.0000000   0.0000000   0.0000000   0.0000000   0.0000000   0.0000000   0.0000000   0.0000000
 NQMom=    0.0000000   0.0000000   0.0000000   0.0000000   0.0000000   0.0000000   0.0000000   0.0000000   0.0000000   0.0000000
 NMagM=    2.7928460   2.7928460   0.0000000   2.7928460   2.7928460   0.0000000   2.7928460   2.7928460   0.0000000   2.7928460
 AtZNuc=   1.0000000   1.0000000   8.0000000   1.0000000   1.0000000   8.0000000   1.0000000   1.0000000   8.0000000   1.0000000

  Atom       361         362         363         364         365         366         367         368         369         370
 IAtWgt=           1          16           1           1          16           1           1          16           1           1
 AtmWgt=   1.0078250  15.9949146   1.0078250   1.0078250  15.9949146   1.0078250   1.0078250  15.9949146   1.0078250   1.0078250
 NucSpn=           1           0           1           1           0           1           1           0           1           1
 AtZEff=   0.0000000   0.0000000   0.0000000   0.0000000   0.0000000   0.0000000   0.0000000   0.0000000   0.0000000   0.0000000
 NQMom=    0.0000000   0.0000000   0.0000000   0.0000000   0.0000000   0.0000000   0.0000000   0.0000000   0.0000000   0.0000000
 NMagM=    2.7928460   0.0000000   2.7928460   2.7928460   0.0000000   2.7928460   2.7928460   0.0000000   2.7928460   2.7928460
 AtZNuc=   1.0000000   8.0000000   1.0000000   1.0000000   8.0000000   1.0000000   1.0000000   8.0000000   1.0000000   1.0000000

  Atom       371         372         373         374         375         376         377         378         379         380
 IAtWgt=          16           1           1          16           1           1          16           1           1          16
 AtmWgt=  15.9949146   1.0078250   1.0078250  15.9949146   1.0078250   1.0078250  15.9949146   1.0078250   1.0078250  15.9949146
 NucSpn=           0           1           1           0           1           1           0           1           1           0
 AtZEff=   0.0000000   0.0000000   0.0000000   0.0000000   0.0000000   0.0000000   0.0000000   0.0000000   0.0000000   0.0000000
 NQMom=    0.0000000   0.0000000   0.0000000   0.0000000   0.0000000   0.0000000   0.0000000   0.0000000   0.0000000   0.0000000
 NMagM=    0.0000000   2.7928460   2.7928460   0.0000000   2.7928460   2.7928460   0.0000000   2.7928460   2.7928460   0.0000000
 AtZNuc=   8.0000000   1.0000000   1.0000000   8.0000000   1.0000000   1.0000000   8.0000000   1.0000000   1.0000000   8.0000000

  Atom       381         382         383         384         385
 IAtWgt=           1           1          16           1           1
 AtmWgt=   1.0078250   1.0078250  15.9949146   1.0078250   1.0078250
 NucSpn=           1           1           0           1           1
 AtZEff=   0.0000000   0.0000000   0.0000000   0.0000000   0.0000000
 NQMom=    0.0000000   0.0000000   0.0000000   0.0000000   0.0000000
 NMagM=    2.7928460   2.7928460   0.0000000   2.7928460   2.7928460
 AtZNuc=   1.0000000   1.0000000   8.0000000   1.0000000   1.0000000
 Leave Link  101 at Sun May  6 05:12:11 2018, MaxMem= 14763950080 cpu:        33.4
 (Enter /cm/shared/gaussian/g09.e01/intel64-sandybridge/g09/l103.exe)

 GradGradGradGradGradGradGradGradGradGradGradGradGradGradGradGradGradGrad
 Berny optimization.
 Initialization pass.
 Trust Radius=3.00D-01 FncErr=1.00D-07 GrdErr=1.00D-07
 Number of steps in this run=      2 maximum allowed number of steps=      2.
 GradGradGradGradGradGradGradGradGradGradGradGradGradGradGradGradGradGrad

 Leave Link  103 at Sun May  6 05:12:11 2018, MaxMem= 14763950080 cpu:         3.7
 (Enter /cm/shared/gaussian/g09.e01/intel64-sandybridge/g09/l202.exe)
 Symmetry turned off by external request.
 Stoichiometry    BrH256O128(1-)
 Framework group  C1[X(BrH256O128)]
 Deg. of freedom  1149
 Full point group                 C1      NOp   1
                          Input orientation:                          
 ---------------------------------------------------------------------
 Center     Atomic      Atomic             Coordinates (Angstroms)
 Number     Number       Type             X           Y           Z
 ---------------------------------------------------------------------
      1         35           0       20.000000   20.000000   20.000000
      2          8           0       23.180000   19.940000   19.880000
      3          1           0       22.260000   20.120000   19.700000
      4          1           0       23.180000   19.550000   20.760000
      5          8           0       19.540000   22.890000   18.700000
      6          1           0       19.880000   22.050000   18.990000
      7          1           0       18.670000   22.950000   19.090000
      8          8           0       17.430000   20.140000   18.010000
      9          1           0       18.260000   20.170000   18.490000
     10          1           0       17.210000   19.210000   17.940000
     11          8           0       18.710000   21.960000   22.210000
     12          1           0       19.270000   21.770000   21.460000
     13          1           0       18.060000   21.250000   22.210000
     14          8           0       21.080000   18.490000   17.010000
     15          1           0       21.690000   19.220000   16.900000
     16          1           0       20.600000   18.690000   17.810000
     17          8           0       21.460000   22.510000   22.050000
     18          1           0       21.170000   22.940000   22.850000
     19          1           0       20.820000   21.820000   21.900000
     20          8           0       17.420000   17.420000   19.950000
     21          1           0       17.270000   16.890000   19.160000
     22          1           0       18.300000   17.770000   19.840000
     23          8           0       20.280000   17.240000   22.940000
     24          1           0       20.260000   16.320000   22.690000
     25          1           0       20.200000   17.710000   22.110000
     26          8           0       21.400000   16.340000   20.150000
     27          1           0       20.560000   16.100000   19.750000
     28          1           0       21.760000   17.000000   19.550000
     29          8           0       16.740000   22.380000   19.470000
     30          1           0       16.900000   21.720000   20.140000
     31          1           0       16.910000   21.930000   18.640000
     32          8           0       22.190000   21.100000   16.710000
     33          1           0       22.720000   21.870000   16.910000
     34          1           0       21.290000   21.370000   16.890000
     35          8           0       23.230000   18.630000   22.180000
     36          1           0       22.770000   17.850000   21.870000
     37          1           0       22.840000   18.830000   23.020000
     38          8           0       19.180000   19.850000   24.510000
     39          1           0       19.830000   19.290000   24.070000
     40          1           0       19.450000   20.740000   24.300000
     41          8           0       21.460000   24.960000   20.290000
     42          1           0       21.700000   24.740000   19.390000
     43          1           0       21.050000   24.160000   20.630000
     44          8           0       20.710000   24.800000   17.500000
     45          1           0       20.300000   24.060000   17.940000
     46          1           0       20.850000   24.500000   16.600000
     47          8           0       15.960000   20.350000   22.140000
     48          1           0       15.100000   20.740000   21.980000
     49          1           0       15.830000   19.410000   22.040000
     50          8           0       17.670000   17.500000   24.130000
     51          1           0       18.520000   17.350000   23.710000
     52          1           0       17.790000   18.310000   24.620000
     53          8           0       19.190000   15.330000   18.720000
     54          1           0       19.330000   14.520000   19.220000
     55          1           0       19.110000   15.040000   17.810000
     56          8           0       25.560000   18.250000   19.920000
     57          1           0       24.760000   18.760000   19.810000
     58          1           0       26.190000   18.860000   20.290000
     59          8           0       15.440000   17.260000   21.900000
     60          1           0       16.210000   17.160000   21.350000
     61          1           0       15.580000   16.640000   22.620000
     62          8           0       25.250000   19.900000   17.400000
     63          1           0       25.190000   18.970000   17.190000
     64          1           0       24.490000   20.070000   17.950000
     65          8           0       23.120000   16.580000   16.470000
     66          1           0       22.320000   17.050000   16.680000
     67          1           0       23.070000   15.780000   17.000000
     68          8           0       24.690000   23.520000   21.270000
     69          1           0       25.300000   23.100000   20.670000
     70          1           0       23.870000   23.050000   21.160000
     71          8           0       16.940000   17.270000   16.840000
     72          1           0       17.050000   17.780000   16.040000
     73          1           0       17.270000   16.400000   16.610000
     74          8           0       20.610000   18.490000   14.240000
     75          1           0       20.590000   18.240000   15.160000
     76          1           0       21.410000   18.990000   14.140000
     77          8           0       22.270000   19.340000   24.620000
     78          1           0       22.080000   18.640000   25.250000
     79          1           0       22.780000   19.980000   25.120000
     80          8           0       19.460000   21.420000   14.790000
     81          1           0       19.790000   20.530000   14.660000
     82          1           0       18.590000   21.410000   14.390000
     83          8           0       17.240000   25.320000   21.240000
     84          1           0       17.400000   25.900000   20.500000
     85          1           0       16.920000   24.510000   20.850000
     86          8           0       21.680000   14.050000   21.610000
     87          1           0       20.740000   14.000000   21.750000
     88          1           0       21.790000   14.810000   21.040000
     89          8           0       25.160000   16.840000   22.280000
     90          1           0       25.420000   16.870000   21.350000
     91          1           0       24.540000   17.560000   22.380000
     92          8           0       18.480000   24.410000   23.830000
     93          1           0       18.330000   24.760000   22.950000
     94          1           0       17.860000   23.680000   23.900000
     95          8           0       15.040000   23.090000   23.010000
     96          1           0       15.140000   23.990000   23.290000
     97          1           0       15.920000   22.720000   23.070000
     98          8           0       14.760000   20.980000   15.830000
     99          1           0       14.550000   20.100000   15.510000
    100          1           0       15.350000   20.830000   16.560000
    101          8           0       21.180000   23.530000   14.850000
    102          1           0       22.100000   23.430000   14.620000
    103          1           0       20.820000   22.640000   14.830000
    104          8           0       20.350000   22.950000   25.450000
    105          1           0       21.030000   23.630000   25.420000
    106          1           0       19.660000   23.280000   24.870000
    107          8           0       17.340000   18.640000   14.350000
    108          1           0       16.970000   18.810000   13.490000
    109          1           0       17.240000   19.470000   14.820000
    110          8           0       24.420000   21.580000   24.820000
    111          1           0       23.670000   21.830000   24.270000
    112          1           0       25.140000   22.120000   24.510000
    113          8           0       23.010000   19.910000   14.030000
    114          1           0       23.950000   19.940000   13.890000
    115          1           0       22.870000   20.420000   14.830000
    116          8           0       15.390000   15.550000   18.140000
    117          1           0       14.480000   15.810000   18.240000
    118          1           0       15.810000   16.280000   17.690000
    119          8           0       14.160000   23.420000   18.480000
    120          1           0       13.420000   23.300000   19.060000
    121          1           0       14.920000   23.190000   19.010000
    122          8           0       17.740000   26.120000   18.520000
    123          1           0       17.470000   26.270000   17.610000
    124          1           0       18.620000   25.740000   18.440000
    125          8           0       17.890000   20.210000   26.820000
    126          1           0       18.450000   20.080000   26.060000
    127          1           0       18.490000   20.480000   27.520000
    128          8           0       19.040000   14.120000   22.110000
    129          1           0       18.160000   14.240000   21.750000
    130          1           0       18.890000   13.880000   23.030000
    131          8           0       13.050000   20.820000   20.140000
    132          1           0       13.740000   20.840000   19.470000
    133          1           0       12.330000   20.350000   19.720000
    134          8           0       13.280000   17.960000   20.710000
    135          1           0       12.630000   18.420000   21.240000
    136          1           0       14.070000   17.950000   21.250000
    137          8           0       18.420000   14.930000   16.280000
    138          1           0       17.780000   14.240000   16.120000
    139          1           0       19.270000   14.490000   16.260000
    140          8           0       14.480000   18.290000   15.390000
    141          1           0       15.220000   18.050000   15.950000
    142          1           0       14.480000   17.630000   14.700000
    143          8           0       24.570000   23.630000   16.600000
    144          1           0       25.090000   23.200000   17.280000
    145          1           0       25.190000   24.220000   16.170000
    146          8           0       26.240000   22.720000   19.030000
    147          1           0       27.110000   23.010000   18.780000
    148          1           0       26.340000   21.780000   19.210000
    149          8           0       15.480000   16.430000   24.910000
    150          1           0       15.480000   16.800000   25.790000
    151          1           0       16.160000   16.900000   24.440000
    152          8           0       21.470000   26.900000   22.250000
    153          1           0       21.540000   26.280000   21.520000
    154          1           0       20.530000   26.990000   22.400000
    155          8           0       16.440000   13.880000   20.850000
    156          1           0       16.010000   14.630000   20.450000
    157          1           0       15.840000   13.150000   20.720000
    158          8           0       25.520000   17.630000   15.840000
    159          1           0       24.670000   17.220000   16.040000
    160          1           0       25.400000   18.040000   14.990000
    161          8           0       23.840000   14.620000   18.200000
    162          1           0       24.280000   14.760000   19.030000
    163          1           0       24.540000   14.380000   17.590000
    164          8           0       19.350000   15.710000   13.960000
    165          1           0       19.560000   16.640000   13.890000
    166          1           0       19.030000   15.600000   14.860000
    167          8           0       21.690000   16.900000   25.860000
    168          1           0       21.540000   16.000000   25.550000
    169          1           0       22.530000   16.860000   26.310000
    170          8           0       25.600000   20.860000   14.920000
    171          1           0       25.440000   20.580000   15.830000
    172          1           0       26.550000   20.930000   14.850000
    173          8           0       17.020000   21.700000   13.800000
    174          1           0       16.160000   21.960000   14.110000
    175          1           0       17.200000   22.310000   13.070000
    176          8           0       18.550000   15.820000   26.570000
    177          1           0       19.120000   16.450000   26.110000
    178          1           0       19.040000   15.590000   27.350000
    179          8           0       22.160000   26.780000   16.260000
    180          1           0       21.870000   26.140000   16.910000
    181          1           0       21.370000   27.280000   16.050000
    182          8           0       25.010000   26.190000   20.400000
    183          1           0       24.850000   25.310000   20.730000
    184          1           0       25.960000   26.290000   20.440000
    185          8           0       19.690000   12.760000   19.530000
    186          1           0       19.580000   12.350000   20.380000
    187          1           0       19.340000   12.130000   18.900000
    188          8           0       20.900000   13.820000   16.270000
    189          1           0       21.120000   12.910000   16.440000
    190          1           0       21.430000   14.060000   15.500000
    191          8           0       20.870000   26.300000   24.890000
    192          1           0       20.640000   27.230000   24.970000
    193          1           0       20.400000   26.000000   24.110000
    194          8           0       16.980000   24.840000   15.470000
    195          1           0       16.940000   25.320000   14.640000
    196          1           0       16.110000   24.480000   15.580000
    197          8           0       22.530000   16.670000   13.250000
    198          1           0       21.730000   17.140000   13.450000
    199          1           0       22.920000   17.150000   12.520000
    200          8           0       22.350000   12.520000   19.010000
    201          1           0       21.440000   12.800000   19.110000
    202          1           0       22.820000   13.320000   18.750000
    203          8           0       23.650000   23.150000   13.930000
    204          1           0       24.130000   23.110000   14.760000
    205          1           0       24.250000   22.740000   13.290000
    206          8           0       13.590000   19.910000   24.390000
    207          1           0       14.430000   20.000000   24.840000
[...]
   Z335      49.32185   0.01128   0.00000   0.01211   0.01149  49.33334
   X336      36.01818  -0.00267   0.00000  -0.00190  -0.00273  36.01545
   Y336      26.05932   0.00710   0.00000   0.00717   0.00684  26.06616
   Z336      49.34075  -0.00468   0.00000  -0.00724  -0.00781  49.33294
   X337      38.49372   0.00953   0.00000   0.00533   0.00443  38.49815
   Y337      25.00108   0.00210   0.00000  -0.00114  -0.00160  24.99948
   Z337      48.37699  -0.00551   0.00000  -0.00116  -0.00175  48.37524
   X338      20.61691  -0.01621   0.00000  -0.01162  -0.01115  20.60576
   Y338      43.93613  -0.01691   0.00000  -0.01620  -0.01514  43.92099
   Z338      40.42124  -0.01409   0.00000  -0.02332  -0.02336  40.39788
   X339      22.31767   0.00756   0.00000  -0.00017   0.00026  22.31792
   Y339      43.40701  -0.00069   0.00000  -0.00162  -0.00070  43.40631
   Z339      40.72360   0.00969   0.00000   0.01509   0.01504  40.73864
   X340      20.71140   0.00923   0.00000   0.01135   0.01194  20.72334
   Y340      45.73137   0.00990   0.00000   0.00111   0.00216  45.73354
   Z340      40.28896   0.00637   0.00000   0.01179   0.01182  40.30078
   X341      48.26361  -0.00082   0.00000  -0.00348  -0.00349  48.26012
   Y341      35.05442  -0.00530   0.00000  -0.00309  -0.00335  35.05107
   Z341      24.92549   0.00940   0.00000   0.00314   0.00300  24.92849
   X342      47.09198  -0.00980   0.00000  -0.00840  -0.00841  47.08357
   Y342      34.82765  -0.00295   0.00000  -0.00337  -0.00350  34.82416
   Z342      23.58378  -0.01166   0.00000  -0.01037  -0.01052  23.57326
   X343      49.39744   0.00799   0.00000   0.00718   0.00727  49.40471
   Y343      36.32054   0.00594   0.00000   0.00305   0.00273  36.32327
   Z343      24.32078   0.00001   0.00000   0.00362   0.00355  24.32433
   X344      39.41969   0.00512   0.00000   0.00439   0.00396  39.42364
   Y344      32.57888  -0.00058   0.00000  -0.00036  -0.00112  32.57775
   Z344      54.63198  -0.00864   0.00000  -0.00580  -0.00610  54.62588
   X345      38.26695  -0.00495   0.00000  -0.00676  -0.00710  38.25985
   Y345      33.92058  -0.00286   0.00000  -0.00573  -0.00640  33.91419
   Z345      54.19735   0.00028   0.00000  -0.00020  -0.00046  54.19689
   X346      38.89056  -0.00243   0.00000  -0.00033  -0.00081  38.88975
   Y346      32.03086   0.00080   0.00000   0.00358   0.00280  32.03366
   Z346      56.27604   0.00671   0.00000   0.00397   0.00365  56.27969
   X347      48.77383  -0.01648   0.00000  -0.00732  -0.00791  48.76592
   Y347      27.28765  -0.00952   0.00000  -0.01260  -0.01310  27.27454
   Z347      30.48128   0.00246   0.00000   0.00388   0.00347  30.48475
   X348      49.86987   0.01055   0.00000   0.00891   0.00833  49.87820
   Y348      27.57110   0.00937   0.00000   0.01453   0.01390  27.58501
   Z348      31.89858   0.00782   0.00000   0.00429   0.00389  31.90247
   X349      49.85098   0.00903   0.00000   0.00561   0.00504  49.85602
   Y349      27.36323   0.00354   0.00000   0.00556   0.00503  27.36827
   Z349      29.04509  -0.00870   0.00000  -0.00417  -0.00458  29.04051
   X350      32.38991  -0.02618   0.00000  -0.01952  -0.02009  32.36982
   Y350      26.81521  -0.00919   0.00000  -0.00157  -0.00073  26.81449
   Z350      24.50975   0.01474   0.00000   0.01500   0.01442  24.52417
   X351      32.76785   0.00023   0.00000  -0.00437  -0.00498  32.76287
   Y351      25.88925   0.00246   0.00000   0.00676   0.00763  25.89688
   Z351      22.99797  -0.00517   0.00000   0.00080   0.00019  22.99816
   X352      33.61823   0.02192   0.00000   0.01844   0.01797  33.63620
   Y352      28.13802   0.01227   0.00000   0.00204   0.00279  28.14081
   Z352      24.56644  -0.00088   0.00000   0.00121   0.00070  24.56714
   X353      44.89989  -0.00337   0.00000   0.00452   0.00399  44.90388
   Y353      30.67026   0.00518   0.00000   0.00243   0.00142  30.67167
   Z353      51.41945  -0.00005   0.00000   0.00519   0.00487  51.42432
   X354      46.12821   0.01465   0.00000   0.01587   0.01525  46.14347
   Y354      29.36634  -0.01068   0.00000  -0.00683  -0.00792  29.35842
   Z354      51.34386  -0.00584   0.00000  -0.00832  -0.00868  51.33518
   X355      44.89989  -0.00101   0.00000  -0.00067  -0.00118  44.89871
   Y355      31.21828   0.00171   0.00000   0.00076  -0.00031  31.21796
   Z355      53.13910   0.01102   0.00000   0.01315   0.01284  53.15194
   X356      28.51597  -0.01506   0.00000  -0.01024  -0.01057  28.50540
   Y356      30.48128   0.01976   0.00000   0.01107   0.01214  30.49342
   Z356      25.56799   0.00599   0.00000   0.00895   0.00847  25.57647
   X357      27.24985  -0.00389   0.00000  -0.00490  -0.00529  27.24456
   Y357      29.59311  -0.00800   0.00000  -0.01189  -0.01077  29.58234
   Z357      26.51286   0.00167   0.00000   0.00148   0.00097  26.51382
   X358      29.78208   0.01320   0.00000   0.00605   0.00564  29.78773
   Y358      29.23406  -0.01365   0.00000  -0.00577  -0.00477  29.22929
   Z358      25.22784  -0.00772   0.00000  -0.00909  -0.00960  25.21825
   X359      33.12690  -0.01391   0.00000  -0.01987  -0.01873  33.10817
   Y359      52.42100  -0.00911   0.00000  -0.00418  -0.00361  52.41740
   Z359      30.36790   0.00232   0.00000   0.01582   0.01620  30.38410
   X360      33.95838   0.00940   0.00000   0.00626   0.00745  33.96583
   Y360      53.40366   0.01346   0.00000   0.01262   0.01309  53.41675
   Z360      31.61512   0.01583   0.00000   0.01353   0.01395  31.62907
   X361      31.84189  -0.00483   0.00000  -0.00633  -0.00512  31.83677
   Y361      53.49815   0.00479   0.00000   0.00587   0.00656  53.50471
   Z361      29.68760  -0.00343   0.00000  -0.00459  -0.00418  29.68342
   X362      42.87789   0.00193   0.00000  -0.00146  -0.00056  42.87733
   Y362      48.22581   0.01238   0.00000   0.00813   0.00828  48.23409
   Z362      24.05621  -0.01032   0.00000  -0.01489  -0.01458  24.04164
   X363      43.48260   0.00087   0.00000  -0.00149  -0.00070  43.48190
   Y363      46.54395  -0.00709   0.00000  -0.00102  -0.00093  46.54302
   Z363      24.30188   0.00688   0.00000   0.00990   0.01015  24.31203
   X364      41.12044  -0.00470   0.00000  -0.00304  -0.00214  41.11830
   Y364      48.13132   0.00064   0.00000   0.00283   0.00307  48.13439
   Z364      24.49085   0.00328   0.00000   0.00380   0.00409  24.49495
   X365      32.44660   0.00690   0.00000   0.00359   0.00279  32.44939
   Y365      23.94283   0.00327   0.00000   0.00893   0.00959  23.95242
   Z365      29.02619   0.00614   0.00000   0.00770   0.00702  29.03321
   X366      31.91747  -0.00029   0.00000   0.00251   0.00181  31.91929
   Y366      25.19005   0.00101   0.00000  -0.00710  -0.00635  25.18370
   Z366      27.81677  -0.02001   0.00000  -0.02675  -0.02739  27.78938
   X367      30.89702  -0.00449   0.00000   0.00000  -0.00085  30.89617
   Y367      23.26253  -0.00266   0.00000  -0.00115  -0.00040  23.26213
   Z367      29.66870   0.01021   0.00000   0.01463   0.01391  29.68261
   X368      20.91927  -0.00328   0.00000  -0.00431  -0.00372  20.91555
   Y368      44.78651   0.01003   0.00000   0.00540   0.00672  44.79323
   Z368      32.61667  -0.00278   0.00000  -0.00143  -0.00143  32.61524
   X369      22.41215   0.00505   0.00000   0.00347   0.00402  22.41617
   Y369      44.35187  -0.00306   0.00000  -0.00322  -0.00203  44.34984
   Z369      33.54264  -0.00077   0.00000  -0.00481  -0.00482  33.53782
   X370      20.03110  -0.00145   0.00000  -0.00027   0.00022  20.03132
   Y370      43.21804  -0.00684   0.00000  -0.00594  -0.00455  43.21349
   Z370      32.44660   0.00159   0.00000   0.00283   0.00276  32.44936
   X371      47.01639   0.02055   0.00000   0.02024   0.02071  47.03710
   Y371      45.41012   0.00493   0.00000   0.00315   0.00197  45.41209
   Z371      51.87298   0.00387   0.00000  -0.00021   0.00004  51.87302
   X372      46.12821  -0.01002   0.00000  -0.00997  -0.00961  46.11860
   Y372      43.87944  -0.00196   0.00000   0.00588   0.00475  43.88419
   Z372      52.26982  -0.00293   0.00000  -0.00523  -0.00505  52.26477
   X373      46.03373  -0.00655   0.00000  -0.00461  -0.00408  46.02965
   Y373      46.16601   0.00145   0.00000   0.00211   0.00105  46.16706
   Z373      50.55017  -0.00086   0.00000   0.00486   0.00512  50.55530
   X374      22.73341  -0.00565   0.00000  -0.00538  -0.00458  22.72883
   Y374      48.84942   0.00037   0.00000   0.00010   0.00100  48.85042
   Z374      40.57242   0.00508   0.00000   0.00145   0.00161  40.57403
   X375      21.69406   0.00023   0.00000   0.00124   0.00209  21.69615
   Y375      49.45413   0.00416   0.00000   0.00547   0.00649  49.46062
   Z375      39.21182  -0.00521   0.00000  -0.00611  -0.00593  39.20588
   X376      24.39636   0.00613   0.00000   0.00296   0.00377  24.40013
   Y376      48.75493   0.00161   0.00000   0.00247   0.00329  48.75822
   Z376      39.85432  -0.00284   0.00000  -0.00107  -0.00090  39.85342
   X377      22.69561  -0.01742   0.00000  -0.01005  -0.01013  22.68548
   Y377      34.05286  -0.00357   0.00000  -0.00488  -0.00345  34.04941
   Z377      26.49396  -0.00579   0.00000  -0.00119  -0.00159  26.49238
   X378      23.56488   0.00379   0.00000   0.00282   0.00270  23.56758
   Y378      33.37256  -0.00242   0.00000  -0.00302  -0.00160  33.37096
   Z378      25.05777  -0.00402   0.00000  -0.00233  -0.00274  25.05503
   X379      23.99952   0.01297   0.00000   0.00633   0.00627  24.00579
   Y379      34.58199   0.00803   0.00000   0.00724   0.00854  34.59052
   Z379      27.60890   0.01195   0.00000   0.00845   0.00809  27.61699
   X380      25.37902   0.01073   0.00000   0.00920   0.00969  25.38871
   Y380      42.23538   0.00766   0.00000   0.00056   0.00186  42.23724
   Z380      25.03887   0.00759   0.00000   0.00510   0.00503  25.04390
   X381      24.90659  -0.00259   0.00000  -0.00303  -0.00263  24.90396
   Y381      41.17713  -0.00459   0.00000  -0.00558  -0.00430  41.17283
   Z381      26.43727   0.00276   0.00000   0.00226   0.00215  26.43942
   X382      24.58534  -0.00592   0.00000  -0.00365  -0.00320  24.58214
   Y382      41.46059  -0.00583   0.00000  -0.00384  -0.00243  41.45816
   Z382      23.62158  -0.00870   0.00000  -0.00420  -0.00430  23.61727
   X383      35.69693  -0.01228   0.00000  -0.00733  -0.00772  35.68921
   Y383      28.95060  -0.00843   0.00000  -0.00739  -0.00665  28.94396
   Z383      20.95706  -0.01695   0.00000  -0.01163  -0.01210  20.94496
   X384      36.26384   0.00632   0.00000   0.00316   0.00286  36.26670
   Y384      30.27341   0.01170   0.00000   0.00645   0.00711  30.28053
   Z384      22.03421   0.00765   0.00000   0.00018  -0.00023  22.03398
   X385      36.67958   0.00924   0.00000   0.01112   0.01063  36.69021
   Y385      27.51441  -0.00188   0.00000   0.00120   0.00186  27.51627
   Z385      21.44839   0.00548   0.00000   0.00610   0.00559  21.45398
         Item               Value     Threshold  Converged?
 Maximum Force            0.038927     0.000450     NO 
 RMS     Force            0.010921     0.000300     NO 
 Maximum Displacement     0.031817     0.001800     NO 
 RMS     Displacement     0.008812     0.001200     NO 
 Predicted change in Energy=-7.573936D-02
 GradGradGradGradGradGradGradGradGradGradGradGradGradGradGradGradGradGrad

 Leave Link  103 at Sun May  6 08:34:06 2018, MaxMem= 14763950080 cpu:      2752.6
 (Enter /cm/shared/gaussian/g09.e01/intel64-sandybridge/g09/l9999.exe)
 1\1\GINC-POPLE01\Force\RPBE1PBE\CC-pVDZ\Br1H256O128(1-)\M.PELUSO\06-Ma
 y-2018\0\\#p PBE1PBE/cc-pvDZ force Counterpoise=2 noSymm\\forces on ch
 loride comput - NWATER: 128\\-1,1\Br,20.,20.,20.\O,23.18,19.94,19.88\H
 ,22.26,20.12,19.7\H,23.18,19.55,20.76\O,19.54,22.89,18.7\H,19.88,22.05
 ,18.99\H,18.67,22.95,19.09\O,17.43,20.14,18.01\H,18.26,20.17,18.49\H,1
 7.21,19.21,17.94\O,18.71,21.96,22.21\H,19.27,21.77,21.46\H,18.06,21.25
 ,22.21\O,21.08,18.49,17.01\H,21.69,19.22,16.9\H,20.6,18.69,17.81\O,21.
 46,22.51,22.05\H,21.17,22.94,22.85\H,20.82,21.82,21.9\O,17.42,17.42,19
 .95\H,17.27,16.89,19.16\H,18.3,17.77,19.84\O,20.28,17.24,22.94\H,20.26
 ,16.32,22.69\H,20.2,17.71,22.11\O,21.4,16.34,20.15\H,20.56,16.1,19.75\
 H,21.76,17.,19.55\O,16.74,22.38,19.47\H,16.9,21.72,20.14\H,16.91,21.93
 ,18.64\O,22.19,21.1,16.71\H,22.72,21.87,16.91\H,21.29,21.37,16.89\O,23
 .23,18.63,22.18\H,22.77,17.85,21.87\H,22.84,18.83,23.02\O,19.18,19.85,
 24.51\H,19.83,19.29,24.07\H,19.45,20.74,24.3\O,21.46,24.96,20.29\H,21.
 7,24.74,19.39\H,21.05,24.16,20.63\O,20.71,24.8,17.5\H,20.3,24.06,17.94
 \H,20.85,24.5,16.6\O,15.96,20.35,22.14\H,15.1,20.74,21.98\H,15.83,19.4
 1,22.04\O,17.67,17.5,24.13\H,18.52,17.35,23.71\H,17.79,18.31,24.62\O,1
 9.19,15.33,18.72\H,19.33,14.52,19.22\H,19.11,15.04,17.81\O,25.56,18.25
 ,19.92\H,24.76,18.76,19.81\H,26.19,18.86,20.29\O,15.44,17.26,21.9\H,16
 .21,17.16,21.35\H,15.58,16.64,22.62\O,25.25,19.9,17.4\H,25.19,18.97,17
 .19\H,24.49,20.07,17.95\O,23.12,16.58,16.47\H,22.32,17.05,16.68\H,23.0
 7,15.78,17.\O,24.69,23.52,21.27\H,25.3,23.1,20.67\H,23.87,23.05,21.16\
 O,16.94,17.27,16.84\H,17.05,17.78,16.04\H,17.27,16.4,16.61\O,20.61,18.
 49,14.24\H,20.59,18.24,15.16\H,21.41,18.99,14.14\O,22.27,19.34,24.62\H
 ,22.08,18.64,25.25\H,22.78,19.98,25.12\O,19.46,21.42,14.79\H,19.79,20.
 53,14.66\H,18.59,21.41,14.39\O,17.24,25.32,21.24\H,17.4,25.9,20.5\H,16
 .92,24.51,20.85\O,21.68,14.05,21.61\H,20.74,14.,21.75\H,21.79,14.81,21
 .04\O,25.16,16.84,22.28\H,25.42,16.87,21.35\H,24.54,17.56,22.38\O,18.4
 8,24.41,23.83\H,18.33,24.76,22.95\H,17.86,23.68,23.9\O,15.04,23.09,23.
 01\H,15.14,23.99,23.29\H,15.92,22.72,23.07\O,14.76,20.98,15.83\H,14.55
 ,20.1,15.51\H,15.35,20.83,16.56\O,21.18,23.53,14.85\H,22.1,23.43,14.62
 \H,20.82,22.64,14.83\O,20.35,22.95,25.45\H,21.03,23.63,25.42\H,19.66,2
 3.28,24.87\O,17.34,18.64,14.35\H,16.97,18.81,13.49\H,17.24,19.47,14.82
 \O,24.42,21.58,24.82\H,23.67,21.83,24.27\H,25.14,22.12,24.51\O,23.01,1
 9.91,14.03\H,23.95,19.94,13.89\H,22.87,20.42,14.83\O,15.39,15.55,18.14
 \H,14.48,15.81,18.24\H,15.81,16.28,17.69\O,14.16,23.42,18.48\H,13.42,2
 3.3,19.06\H,14.92,23.19,19.01\O,17.74,26.12,18.52\H,17.47,26.27,17.61\
 H,18.62,25.74,18.44\O,17.89,20.21,26.82\H,18.45,20.08,26.06\H,18.49,20
 .48,27.52\O,19.04,14.12,22.11\H,18.16,14.24,21.75\H,18.89,13.88,23.03\
 O,13.05,20.82,20.14\H,13.74,20.84,19.47\H,12.33,20.35,19.72\O,13.28,17
 .96,20.71\H,12.63,18.42,21.24\H,14.07,17.95,21.25\O,18.42,14.93,16.28\
 H,17.78,14.24,16.12\H,19.27,14.49,16.26\O,14.48,18.29,15.39\H,15.22,18
 .05,15.95\H,14.48,17.63,14.7\O,24.57,23.63,16.6\H,25.09,23.2,17.28\H,2
 5.19,24.22,16.17\O,26.24,22.72,19.03\H,27.11,23.01,18.78\H,26.34,21.78
 ,19.21\O,15.48,16.43,24.91\H,15.48,16.8,25.79\H,16.16,16.9,24.44\O,21.
 47,26.9,22.25\H,21.54,26.28,21.52\H,20.53,26.99,22.4\O,16.44,13.88,20.
 85\H,16.01,14.63,20.45\H,15.84,13.15,20.72\O,25.52,17.63,15.84\H,24.67
 ,17.22,16.04\H,25.4,18.04,14.99\O,23.84,14.62,18.2\H,24.28,14.76,19.03
 \H,24.54,14.38,17.59\O,19.35,15.71,13.96\H,19.56,16.64,13.89\H,19.03,1
 5.6,14.86\O,21.69,16.9,25.86\H,21.54,16.,25.55\H,22.53,16.86,26.31\O,2
 5.6,20.86,14.92\H,25.44,20.58,15.83\H,26.55,20.93,14.85\O,17.02,21.7,1
 3.8\H,16.16,21.96,14.11\H,17.2,22.31,13.07\O,18.55,15.82,26.57\H,19.12
 ,16.45,26.11\H,19.04,15.59,27.35\O,22.16,26.78,16.26\H,21.87,26.14,16.
 91\H,21.37,27.28,16.05\O,25.01,26.19,20.4\H,24.85,25.31,20.73\H,25.96,
 26.29,20.44\O,19.69,12.76,19.53\H,19.58,12.35,20.38\H,19.34,12.13,18.9
 \O,20.9,13.82,16.27\H,21.12,12.91,16.44\H,21.43,14.06,15.5\O,20.87,26.
 3,24.89\H,20.64,27.23,24.97\H,20.4,26.,24.11\O,16.98,24.84,15.47\H,16.
 94,25.32,14.64\H,16.11,24.48,15.58\O,22.53,16.67,13.25\H,21.73,17.14,1
 3.45\H,22.92,17.15,12.52\O,22.35,12.52,19.01\H,21.44,12.8,19.11\H,22.8
 2,13.32,18.75\O,23.65,23.15,13.93\H,24.13,23.11,14.76\H,24.25,22.74,13
 .29\O,13.59,19.91,24.39\H,14.43,20.,24.84\H,13.06,19.37,24.98\O,14.36,
 23.94,15.78\H,14.57,23.79,16.71\H,14.06,23.08,15.47\O,19.35,24.26,13.1
 8\H,20.04,24.19,13.84\H,18.54,24.1,13.67\O,12.86,16.63,18.44\H,13.16,1
 7.16,19.18\H,12.14,16.11,18.79\O,13.51,14.99,21.15\H,13.88,15.83,20.89
 \H,13.2,15.13,22.05\O,26.,23.56,23.66\H,25.27,24.18,23.64\H,26.11,23.2
 9,22.75\O,26.92,16.24,18.03\H,26.96,16.7,18.86\H,26.27,16.73,17.51\O,2
 5.43,14.61,20.36\H,25.08,14.6,21.25\H,26.34,14.9,20.46\O,18.72,27.39,2
 2.3\H,17.9,27.,21.99\H,18.45,28.09,22.89\O,24.85,14.79,24.43\H,25.71,1
 4.44,24.19\H,24.76,15.59,23.91\O,15.99,12.88,18.16\H,16.65,13.25,18.75
 \H,15.57,13.64,17.77\O,23.97,25.47,23.93\H,23.06,25.73,24.08\H,24.42,2
 6.29,23.73\O,15.1,20.03,26.49\H,14.6,19.37,26.97\H,16.01,19.75,26.58\O
 ,27.72,19.9,20.69\H,28.03,20.12,21.56\H,28.4,19.33,20.32\O,19.33,18.77
 ,11.43\H,19.58,18.74,12.36\H,20.1,19.13,10.99\O,23.75,12.25,21.23\H,23
 .68,11.94,20.33\H,23.07,12.93,21.3\O,19.23,23.13,28.1\H,19.88,23.64,28
 .58\H,19.67,22.86,27.3\O,21.88,19.7,27.64\H,22.02,18.79,27.9\H,21.04,1
 9.93,28.05\O,22.85,22.19,27.67\H,22.9,21.35,27.22\H,21.98,22.52,27.47\
 O,16.06,22.75,27.06\H,16.94,22.43,27.29\H,15.79,22.21,26.33\O,12.56,22
 .63,23.88\H,13.46,22.71,23.56\H,12.55,21.8,24.34\O,27.17,18.77,23.7\H,
 27.47,18.95,24.59\H,26.7,17.94,23.77\O,19.52,28.81,19.54\H,18.71,29.32
 ,19.55\H,19.24,27.91,19.41\O,17.32,25.69,26.26\H,17.86,25.04,25.81\H,1
 7.93,26.4,26.48\O,27.8,16.03,20.89\H,28.63,16.36,21.24\H,27.14,16.62,2
 1.25\O,22.12,20.25,11.48\H,22.34,20.55,12.36\H,22.64,20.81,10.9\O,22.0
 7,14.07,25.2\H,22.76,13.94,24.54\H,22.53,14.43,25.96\O,26.36,20.19,26.
 35\H,26.93,20.91,26.09\H,25.53,20.36,25.9\O,23.01,14.32,14.44\H,22.85,
 15.19,14.08\H,23.92,14.33,14.72\O,11.45,19.17,22.7\H,11.05,20.01,22.48
 \H,12.29,19.4,23.1\O,15.38,25.41,24.34\H,14.79,26.11,24.61\H,15.95,25.
 27,25.1\O,24.23,27.67,18.02\H,23.46,27.38,17.54\H,24.38,26.98,18.67\O,
 19.59,26.86,14.78\H,19.21,26.1,14.33\H,18.86,27.21,15.3\O,21.11,11.66,
 23.27\H,21.52,12.49,23.53\H,21.55,11.42,22.46\O,11.41,18.45,17.05\H,11
 .39,18.09,16.16\H,12.17,18.03,17.46\O,17.18,13.07,24.02\H,16.78,12.9,2
 4.87\H,16.55,12.7,23.39\O,28.03,21.27,23.08\H,27.79,20.45,23.51\H,28.1
 2,21.9,23.8\O,16.45,16.95,27.8\H,17.17,16.56,27.31\H,15.93,16.2,28.1\O
 ,13.34,15.1,23.96\H,14.23,15.26,24.29\H,12.77,15.46,24.64\O,22.45,25.6
 ,26.9\H,21.93,26.03,27.57\H,22.,25.79,26.08\O,23.81,28.06,22.48\H,22.9
 2,27.89,22.17\H,24.37,27.84,21.74\O,28.03,17.93,15.04\H,28.72,18.46,15
 .43\H,27.27,18.09,15.59\O,14.98,27.92,20.42\H,14.59,28.66,19.95\H,15.2
 1,27.3,19.73\O,19.59,12.99,26.1\H,19.06,13.79,26.11\H,20.37,13.23,25.6
 \O,10.91,23.25,21.39\H,11.81,22.97,21.55\H,10.96,24.2,21.32\O,25.54,18
 .55,13.19\H,24.92,18.43,12.48\H,26.14,19.22,12.87\O,20.86,17.24,28.91\
 H,20.25,17.95,28.68\H,20.58,16.95,29.78\O,25.81,14.44,16.13\H,26.39,14
 .59,16.88\H,26.38,14.48,15.37\O,17.14,14.19,12.97\H,17.34,13.7,12.17\H
 ,17.79,14.89,13.\O,23.76,16.23,27.21\H,24.41,15.54,27.17\H,23.76,16.52
 ,28.12\O,15.09,16.13,13.53\H,14.42,15.66,14.03\H,15.76,15.47,13.35\O,1
 7.53,27.74,16.07\H,17.97,28.26,16.73\H,16.85,28.31,15.71\O,22.69,25.52
 ,12.73\H,23.01,24.63,12.86\H,21.76,25.47,12.96\O,17.17,12.67,15.36\H,1
 6.89,13.33,14.72\H,16.35,12.31,15.7\O,11.07,23.7,17.26\H,11.86,23.47,1
 7.75\H,10.6,22.87,17.17\O,24.88,24.03,27.45\H,24.41,23.22,27.66\H,24.3
 6,24.43,26.75\O,12.03,25.85,21.47\H,11.48,26.17,20.75\H,12.91,25.8,21.
 09\O,12.01,18.02,14.02\H,12.47,17.66,13.26\H,12.7,18.3,14.61\O,13.43,2
 2.35,13.25\H,13.18,21.79,13.99\H,13.01,21.94,12.5\O,18.89,15.32,11.09\
 H,19.19,16.02,11.66\H,19.41,14.56,11.35\\Version=ES64L-G09RevE.01\HF=-
 9773.3767333\RMSD=1.909e-09\RMSF=1.092e-02\Dipole=3.6465242,-4.1193035
 ,1.370149\Quadrupole=269.8165111,-407.5303617,137.7138506,-1466.249997
 5,-1233.7105343,-1543.2145382\PG=C01 [X(Br1H256O128)]\\@


 THERE IS MORE TO LIFE THAN INCREASING ITS SPEED.

                                       -- GANDHI
 Job cpu time:       8 days 19 hours 50 minutes 42.1 seconds.
 File lengths (MBytes):  RWF=   7285 Int=      0 D2E=      0 Chk=   2411 Scr=      1
 Normal termination of Gaussian 09 at Sun May  6 08:34:51 2018.
