 Entering Gaussian System, Link 0=/cm/shared/gaussian/g09.e01/intel64-sandybridge/g09/g09
 Initial command:
 /cm/shared/gaussian/g09.e01/intel64-sandybridge/g09/l1.exe "/local/scratch/m.peluso/128_wat/370/Gau-64884.inp" -scrdir="/local/scratch/m.peluso/128_wat/370/"
 Entering Link 1 = /cm/shared/gaussian/g09.e01/intel64-sandybridge/g09/l1.exe PID=     64885.
  
 Copyright (c) 1988,1990,1992,1993,1995,1998,2003,2009,2015,
            Gaussian, Inc.  All Rights Reserved.
  
 This is part of the Gaussian(R) 09 program.  It is based on
 the Gaussian(R) 03 system (copyright 2003, Gaussian, Inc.),
 the Gaussian(R) 98 system (copyright 1998, Gaussian, Inc.),
 the Gaussian(R) 94 system (copyright 1995, Gaussian, Inc.),
 the Gaussian 92(TM) system (copyright 1992, Gaussian, Inc.),
 the Gaussian 90(TM) system (copyright 1990, Gaussian, Inc.),
 the Gaussian 88(TM) system (copyright 1988, Gaussian, Inc.),
 the Gaussian 86(TM) system (copyright 1986, Carnegie Mellon
 University), and the Gaussian 82(TM) system (copyright 1983,
 Carnegie Mellon University). Gaussian is a federally registered
 trademark of Gaussian, Inc.
  
 This software contains proprietary and confidential information,
 including trade secrets, belonging to Gaussian, Inc.
  
 This software is provided under written license and may be
 used, copied, transmitted, or stored only in accord with that
 written license.
  
 The following legend is applicable only to US Government
 contracts under FAR:
  
                    RESTRICTED RIGHTS LEGEND
  
 Use, reproduction and disclosure by the US Government is
 subject to restrictions as set forth in subparagraphs (a)
 and (c) of the Commercial Computer Software - Restricted
 Rights clause in FAR 52.227-19.
  
 Gaussian, Inc.
 340 Quinnipiac St., Bldg. 40, Wallingford CT 06492
  
  
 ---------------------------------------------------------------
 Warning -- This program may not be used in any manner that
 competes with the business of Gaussian, Inc. or will provide
 assistance to any competitor of Gaussian, Inc.  The licensee
 of this program is prohibited from giving any competitor of
 Gaussian, Inc. access to this program.  By using this program,
 the user acknowledges that Gaussian, Inc. is engaged in the
 business of creating and licensing software in the field of
 computational chemistry and represents and warrants to the
 licensee that it is not a competitor of Gaussian, Inc. and that
 it will not use this program in any manner prohibited above.
 ---------------------------------------------------------------
  

 Cite this work as:
 Gaussian 09, Revision E.01,
 M. J. Frisch, G. W. Trucks, H. B. Schlegel, G. E. Scuseria, 
 M. A. Robb, J. R. Cheeseman, G. Scalmani, V. Barone, B. Mennucci, 
 G. A. Petersson, H. Nakatsuji, M. Caricato, X. Li, H. P. Hratchian, 
 A. F. Izmaylov, J. Bloino, G. Zheng, J. L. Sonnenberg, M. Hada, 
 M. Ehara, K. Toyota, R. Fukuda, J. Hasegawa, M. Ishida, T. Nakajima, 
 Y. Honda, O. Kitao, H. Nakai, T. Vreven, J. A. Montgomery, Jr., 
 J. E. Peralta, F. Ogliaro, M. Bearpark, J. J. Heyd, E. Brothers, 
 K. N. Kudin, V. N. Staroverov, T. Keith, R. Kobayashi, J. Normand, 
 K. Raghavachari, A. Rendell, J. C. Burant, S. S. Iyengar, J. Tomasi, 
 M. Cossi, N. Rega, J. M. Millam, M. Klene, J. E. Knox, J. B. Cross, 
 V. Bakken, C. Adamo, J. Jaramillo, R. Gomperts, R. E. Stratmann, 
 O. Yazyev, A. J. Austin, R. Cammi, C. Pomelli, J. W. Ochterski, 
 R. L. Martin, K. Morokuma, V. G. Zakrzewski, G. A. Voth, 
 P. Salvador, J. J. Dannenberg, S. Dapprich, A. D. Daniels, 
 O. Farkas, J. B. Foresman, J. V. Ortiz, J. Cioslowski, 
 and D. J. Fox, Gaussian, Inc., Wallingford CT, 2013.
 
 ******************************************
 Gaussian 09:  ES64L-G09RevE.01 30-Nov-2015
                 4-May-2018 
 ******************************************
 %Mem=110GB
 %NProcShared=64
 Will use up to   64 processors via shared memory.
 %chk=snap11.chk
 ----------------------------------------------
 #p PBE1PBE/cc-pvDZ force Counterpoise=2 noSymm
 ----------------------------------------------
 1/10=7,30=1,38=1,62=2/1,3;
 2/12=2,15=1,17=6,18=5,40=1/2;
 1/10=7,30=1,38=1,53=2,62=2,63=101/22;
 3/5=16,11=2,16=1,25=1,30=1,71=1,74=-13/1,2,3;
 4//1;
 5/5=2,38=5/2;
 6/7=2,8=2,9=2,10=2,28=1/1;
 7/7=1,29=1,30=1,33=-1/1,2,3,16;
 1/10=7,30=1,53=2,62=2,63=101/22;
 3/5=7,6=11,11=2,16=1,25=1,30=1,71=1,74=-13,82=7/1,2,3;
 4//1;
 5/5=2,38=5/2;
 6/7=2,8=2,9=2,10=2,28=1/1;
 7/7=1,29=1,30=1,33=-1/1,2,3,16;
 1/10=7,30=1,53=2,62=2,63=101/22(-5);
 7/9=1,29=1,44=-1/16;
 1/10=7,30=1,62=2/3;
 99//99;
 Leave Link    1 at Fri May  4 20:08:51 2018, MaxMem= 14763950080 cpu:         4.4
 (Enter /cm/shared/gaussian/g09.e01/intel64-sandybridge/g09/l101.exe)
 ---------------------------------------
 forces on chloride comput - NWATER: 128
 ---------------------------------------
 Symbolic Z-matrix:
 Charge = -1 Multiplicity = 1 in supermolecule
 Charge = -1 Multiplicity = 1 in fragment      1.
 Charge =  0 Multiplicity = 1 in fragment      2.
 Br(Fragment=1)        20.       20.       20. 
 O(Fragment=2)         19.23     17.03     19.9 
 H(Fragment=2)         19.48     17.95     19.93 
 H(Fragment=2)         18.62     16.93     20.63 
 O(Fragment=2)         21.07     22.83     19.28 
 H(Fragment=2)         20.63     23.01     18.45 
 H(Fragment=2)         20.78     21.94     19.52 
 O(Fragment=2)         21.52     21.36     22.46 
 H(Fragment=2)         20.99     22.15     22.41 
 H(Fragment=2)         21.17     20.79     21.78 
 O(Fragment=2)         23.13     20.25     19.19 
 H(Fragment=2)         22.81     20.69     18.4 
 H(Fragment=2)         22.35     20.13     19.73 
 O(Fragment=2)         17.24     19.03     21.7 
 H(Fragment=2)         18.06     19.38     21.35 
 H(Fragment=2)         16.87     19.74     22.22 
 O(Fragment=2)         18.4      23.81     19.74 
 H(Fragment=2)         18.56     22.89     19.55 
 H(Fragment=2)         17.51     23.97     19.41 
 O(Fragment=2)         20.83     18.88     23.74 
 H(Fragment=2)         20.58     19.63     23.19 
 H(Fragment=2)         20.39     19.04     24.57 
 O(Fragment=2)         21.74     20.03     16.07 
 H(Fragment=2)         21.07     20.04     16.76 
 H(Fragment=2)         22.19     20.87     16.17 
 O(Fragment=2)         16.2      19.63     19.03 
 H(Fragment=2)         16.59     19.37     19.87 
 H(Fragment=2)         16.85     20.21     18.63 
 O(Fragment=2)         17.99     21.19     23.38 
 H(Fragment=2)         18.91     21.34     23.21 
 H(Fragment=2)         17.53     21.75     22.76 
 O(Fragment=2)         19.52     23.21     22.26 
 H(Fragment=2)         19.35     23.52     21.37 
 H(Fragment=2)         19.51     24.       22.79 
 O(Fragment=2)         17.51     16.62     17.8 
 H(Fragment=2)         16.9      16.01     18.23 
 H(Fragment=2)         17.81     17.2      18.5 
 O(Fragment=2)         17.33     21.53     17.51 
 H(Fragment=2)         17.78     20.89     16.96 
 H(Fragment=2)         16.99     22.18     16.9 
 O(Fragment=2)         19.86     17.88     16.26 
 H(Fragment=2)         20.69     18.32     16.43 
 H(Fragment=2)         19.66     17.41     17.07 
 O(Fragment=2)         23.35     23.35     20.96 
 H(Fragment=2)         22.57     22.95     20.57 
 H(Fragment=2)         23.94     22.61     21.12 
 O(Fragment=2)         23.54     18.85     22.51 
 H(Fragment=2)         22.75     18.57     22.96 
 H(Fragment=2)         23.35     19.75     22.24 
 O(Fragment=2)         19.48     16.46     23.49 
 H(Fragment=2)         20.05     17.23     23.45 
 H(Fragment=2)         20.03     15.78     23.87 
 O(Fragment=2)         18.45     20.09     15.67 
 H(Fragment=2)         18.85     19.22     15.76 
 H(Fragment=2)         18.3      20.19     14.73 
 O(Fragment=2)         24.99     18.62     18.48 
 H(Fragment=2)         24.32     19.23     18.81 
 H(Fragment=2)         24.5      18.03     17.91 
 O(Fragment=2)         22.71     22.59     16.87 
 H(Fragment=2)         22.81     23.03     17.71 
 H(Fragment=2)         22.21     23.21     16.33 
 O(Fragment=2)         25.03     21.24     21.04 
 H(Fragment=2)         25.94     20.95     21.1 
 H(Fragment=2)         24.66     20.75     20.31 
 O(Fragment=2)         15.8      22.1      22.34 
 H(Fragment=2)         16.13     22.37     21.48 
 H(Fragment=2)         14.85     22.08     22.23 
 O(Fragment=2)         21.7      25.47     19.71 
 H(Fragment=2)         21.9      25.93     20.54 
 H(Fragment=2)         21.39     24.61     19.98 
 O(Fragment=2)         18.78     14.39     19.29 
 H(Fragment=2)         18.88     14.05     18.4 
 H(Fragment=2)         19.16     15.27     19.25 
 O(Fragment=2)         16.85     16.37     22.48 
 H(Fragment=2)         17.8      16.36     22.55 
 H(Fragment=2)         16.63     17.3      22.34 
 O(Fragment=2)         19.82     24.44     17.13 
 H(Fragment=2)         19.67     23.71     16.52 
 H(Fragment=2)         19.13     24.35     17.78 
 O(Fragment=2)         23.62     22.63     23.9 
 H(Fragment=2)         23.21     22.25     24.67 
 H(Fragment=2)         22.97     22.52     23.2 
 O(Fragment=2)         23.57     16.13     22.2 
 H(Fragment=2)         23.81     15.76     23.05 
 H(Fragment=2)         23.55     17.07     22.35 
 O(Fragment=2)         16.5      18.7      24.76 
 H(Fragment=2)         16.05     18.11     24.15 
 H(Fragment=2)         17.28     18.98     24.29 
 O(Fragment=2)         15.3      19.27     16.33 
 H(Fragment=2)         16.08     19.75     16.6 
 H(Fragment=2)         14.8      19.9      15.82 
 O(Fragment=2)         19.19     22.99     14.83 
 H(Fragment=2)         19.56     23.03     13.95 
 H(Fragment=2)         19.03     22.06     14.98 
 O(Fragment=2)         21.63     14.41     21.12 
 H(Fragment=2)         20.81     14.56     21.59 
 H(Fragment=2)         22.21     15.11     21.4 
 O(Fragment=2)         13.99     19.18     20.54 
 H(Fragment=2)         14.38     18.4      20.93 
 H(Fragment=2)         14.4      19.24     19.68 
 O(Fragment=2)         23.78     16.72     17.04 
 H(Fragment=2)         23.38     16.69     16.17 
 H(Fragment=2)         23.59     15.87     17.42 
 O(Fragment=2)         13.61     21.13     18.12 
 H(Fragment=2)         14.43     20.82     18.49 
 H(Fragment=2)         13.13     21.51     18.85 
 O(Fragment=2)         22.03     18.57     13.71 
 H(Fragment=2)         21.83     19.01     14.53 
 H(Fragment=2)         21.25     18.7      13.17 
 O(Fragment=2)         20.74     22.26     25.65 
 H(Fragment=2)         21.28     21.48     25.69 
 H(Fragment=2)         19.84     21.94     25.59 
 O(Fragment=2)         16.23     16.89     15.41 
 H(Fragment=2)         16.73     16.65     16.19 
 H(Fragment=2)         15.7      17.64     15.69 
 O(Fragment=2)         17.99     22.41     25.73 
 H(Fragment=2)         17.93     23.3      25.37 
 H(Fragment=2)         17.45     21.87     25.16 
 O(Fragment=2)         16.42     24.48     17.88 
 H(Fragment=2)         15.94     24.26     17.08 
 H(Fragment=2)         15.84     25.09     18.34 
 O(Fragment=2)         16.13     24.64     21. 
 H(Fragment=2)         15.2      24.49     21.13 
 H(Fragment=2)         16.41     25.11     21.79 
 O(Fragment=2)         15.27     15.94     19.78 
 H(Fragment=2)         14.5      15.38     19.71 
 H(Fragment=2)         15.75     15.59     20.54 
 O(Fragment=2)         19.67     19.66     26.15 
 H(Fragment=2)         18.89     19.2      26.47 
 H(Fragment=2)         20.13     19.92     26.95 
 O(Fragment=2)         22.78     25.86     17.3 
 H(Fragment=2)         23.45     25.96     17.98 
 H(Fragment=2)         22.07     25.37     17.73 
 O(Fragment=2)         23.24     14.67     18.56 
 H(Fragment=2)         23.64     14.02     19.14 
 H(Fragment=2)         22.32     14.42     18.51 
 O(Fragment=2)         19.42     16.91     13.53 
 H(Fragment=2)         19.1      16.05     13.8 
 H(Fragment=2)         19.33     17.46     14.3 
 O(Fragment=2)         24.79     25.3      19.33 
 H(Fragment=2)         25.58     24.76     19.29 
 H(Fragment=2)         24.18     24.79     19.87 
 O(Fragment=2)         25.6      20.       24.18 
 H(Fragment=2)         25.62     19.73     23.26 
 H(Fragment=2)         24.75     20.42     24.29 
 O(Fragment=2)         13.76     17.34     17.77 
 H(Fragment=2)         14.34     18.03     17.44 
 H(Fragment=2)         14.15     17.09     18.61 
 O(Fragment=2)         18.65     13.34     21.82 
 H(Fragment=2)         18.46     12.4      21.71 
 H(Fragment=2)         18.65     13.68     20.92 
 O(Fragment=2)         22.99     25.37     23.36 
 H(Fragment=2)         23.7      25.92     23.66 
 H(Fragment=2)         23.32     24.47     23.45 
 O(Fragment=2)         13.19     21.39     22.02 
 H(Fragment=2)         13.59     20.71     21.48 
 H(Fragment=2)         12.46     20.96     22.46 
 O(Fragment=2)         17.54     26.82     19.5 
 H(Fragment=2)         17.86     26.48     20.33 
 H(Fragment=2)         17.72     26.13     18.86 
 O(Fragment=2)         17.46     16.07     25.9 
 H(Fragment=2)         17.75     15.28     25.44 
 H(Fragment=2)         17.38     16.73     25.21 
 O(Fragment=2)         20.11     25.86     23.24 
 H(Fragment=2)         21.03     25.7      23.46 
 H(Fragment=2)         20.08     26.78     22.99 
 O(Fragment=2)         23.01     20.89     25.92 
 H(Fragment=2)         23.03     21.24     26.81 
 H(Fragment=2)         23.15     19.95     26.03 
 O(Fragment=2)         17.24     24.93     15.24 
 H(Fragment=2)         16.61     24.46     14.7 
 H(Fragment=2)         18.01     24.36     15.27 
 O(Fragment=2)         21.69     15.27     24.8 
 H(Fragment=2)         22.6      15.22     25.08 
 H(Fragment=2)         21.32     15.99     25.31 
 O(Fragment=2)         24.42     19.9      13.74 
 H(Fragment=2)         23.63     20.11     14.24 
 H(Fragment=2)         24.1      19.47     12.95 
 O(Fragment=2)         14.47     22.66     24.74 
 H(Fragment=2)         14.75     23.27     25.42 
 H(Fragment=2)         15.19     22.66     24.11 
 O(Fragment=2)         25.31     23.66     16.13 
 H(Fragment=2)         25.45     23.46     17.05 
 H(Fragment=2)         24.41     23.37     15.96 
 O(Fragment=2)         26.68     17.24     20.81 
 H(Fragment=2)         26.35     17.3      19.92 
 H(Fragment=2)         25.97     16.84     21.31 
 O(Fragment=2)         26.07     15.56     18.58 
 H(Fragment=2)         25.21     15.81     18.24 
 H(Fragment=2)         26.51     15.14     17.84 
 O(Fragment=2)         27.35     19.93     20.93 
 H(Fragment=2)         26.82     19.13     20.88 
 H(Fragment=2)         27.88     19.92     20.13 
 O(Fragment=2)         20.64     13.38     16.69 
 H(Fragment=2)         20.73     13.47     17.64 
 H(Fragment=2)         21.       12.51     16.5 
 O(Fragment=2)         21.4      12.55     19.15 
 H(Fragment=2)         21.39     13.13     19.92 
 H(Fragment=2)         20.67     11.94     19.3 
 O(Fragment=2)         14.69     23.11     16.37 
 H(Fragment=2)         14.69     22.95     15.42 
 H(Fragment=2)         14.24     22.36     16.74 
 O(Fragment=2)         20.25     27.77     18.64 
 H(Fragment=2)         20.36     26.97     19.16 
 H(Fragment=2)         21.14     28.13     18.56 
 O(Fragment=2)         26.39     23.19     19.22 
 H(Fragment=2)         26.82     22.85     20.01 
 H(Fragment=2)         26.98     22.95     18.51 
 O(Fragment=2)         22.03     15.44     14.78 
 H(Fragment=2)         21.55     16.03     14.21 
 H(Fragment=2)         21.51     14.64     14.79 
 O(Fragment=2)         17.05     18.72     12.89 
 H(Fragment=2)         17.15     18.07     13.6 
 H(Fragment=2)         16.79     18.2      12.13 
 O(Fragment=2)         18.14     25.17     25.04 
 H(Fragment=2)         18.31     25.38     25.96 
 H(Fragment=2)         18.88     25.56     24.57 
 O(Fragment=2)         19.03     20.74     12.8 
 H(Fragment=2)         19.72     20.38     12.23 
 H(Fragment=2)         18.28     20.17     12.67 
 O(Fragment=2)         15.09     20.32     26.39 
 H(Fragment=2)         15.33     19.68     25.71 
 H(Fragment=2)         14.72     21.06     25.91 
 O(Fragment=2)         18.08     13.91     24.51 
 H(Fragment=2)         18.43     13.76     23.63 
 H(Fragment=2)         18.15     13.05     24.94 
 O(Fragment=2)         16.6      26.18     23.1 
 H(Fragment=2)         15.87     26.55     23.6 
 H(Fragment=2)         17.21     25.85     23.76 
 O(Fragment=2)         26.42     23.01     24.61 
 H(Fragment=2)         25.69     22.87     24. 
 H(Fragment=2)         26.       23.05     25.47 
 O(Fragment=2)         23.2      23.26     14.01 
 H(Fragment=2)         22.49     23.45     13.4 
 H(Fragment=2)         23.94     23.       13.46 
 O(Fragment=2)         21.96     24.59     26.42 
 H(Fragment=2)         21.55     23.73     26.38 
 H(Fragment=2)         22.55     24.62     25.67 
 O(Fragment=2)         17.38     18.56     27.35 
 H(Fragment=2)         17.36     17.68     26.99 
 H(Fragment=2)         16.78     19.06     26.79 
 O(Fragment=2)         23.82     12.58     21.33 
 H(Fragment=2)         23.06     13.16     21.25 
 H(Fragment=2)         24.53     13.03     20.88 
 O(Fragment=2)         13.84     18.02     24.22 
 H(Fragment=2)         13.12     17.76     24.79 
 H(Fragment=2)         13.62     17.62     23.37 
 O(Fragment=2)         27.55     17.6      16.99 
 H(Fragment=2)         27.37     17.4      16.07 
 H(Fragment=2)         26.71     17.47     17.43 
 O(Fragment=2)         20.95     26.8      15.02 
 H(Fragment=2)         20.29     26.3      14.54 
 H(Fragment=2)         21.03     26.35     15.86 
 O(Fragment=2)         21.54     17.09     26.92 
 H(Fragment=2)         21.13     17.51     27.68 
 H(Fragment=2)         22.4      17.52     26.85 
 O(Fragment=2)         15.09     14.43     24.15 
 H(Fragment=2)         14.87     14.88     24.96 
 H(Fragment=2)         16.03     14.58     24.03 
 O(Fragment=2)         19.51     22.33     28.42 
 H(Fragment=2)         19.33     22.39     27.48 
 H(Fragment=2)         19.58     21.4      28.59 
 O(Fragment=2)         24.71     15.55     24.64 
 H(Fragment=2)         24.87     15.49     25.58 
 H(Fragment=2)         25.39     16.14     24.32 
 O(Fragment=2)         12.71     23.93     21.75 
 H(Fragment=2)         12.11     23.76     21.03 
 H(Fragment=2)         12.97     23.06     22.06 
 O(Fragment=2)         17.01     14.6      14.16 
 H(Fragment=2)         16.57     14.1      14.84 
 H(Fragment=2)         16.64     15.48     14.24 
 O(Fragment=2)         24.38     16.8      12.83 
 H(Fragment=2)         23.8      17.36     13.34 
 H(Fragment=2)         23.79     16.15     12.43 
 O(Fragment=2)         21.79     12.2      23.26 
 H(Fragment=2)         22.46     12.25     22.58 
 H(Fragment=2)         21.85     13.03     23.73 
 O(Fragment=2)         15.76     22.97     13.73 
 H(Fragment=2)         15.96     23.43     12.91 
 H(Fragment=2)         15.49     22.1      13.45 
 O(Fragment=2)         12.46     24.5      18.44 
 H(Fragment=2)         12.28     25.19     17.8 
 H(Fragment=2)         13.17     23.99     18.05 
 O(Fragment=2)         13.45     15.69     22.25 
 H(Fragment=2)         13.87     15.08     22.85 
 H(Fragment=2)         13.18     15.16     21.5 
 O(Fragment=2)         27.8      22.95     21.61 
 H(Fragment=2)         28.3      23.74     21.78 
 H(Fragment=2)         27.31     22.8      22.42 
 O(Fragment=2)         14.81     20.62     13.26 
 H(Fragment=2)         15.35     19.83     13.25 
 H(Fragment=2)         14.01     20.37     12.79 
 O(Fragment=2)         19.06     28.03     21.54 
 H(Fragment=2)         18.3      28.5      21.88 
 H(Fragment=2)         19.15     28.34     20.64 
 O(Fragment=2)         24.1      18.54     27. 
 H(Fragment=2)         24.94     18.53     26.54 
 H(Fragment=2)         24.33     18.46     27.92 
 O(Fragment=2)         27.78     22.48     17.26 
 H(Fragment=2)         27.79     21.55     17.49 
 H(Fragment=2)         27.86     22.49     16.3 
 O(Fragment=2)         19.33     13.35     14.05 
 H(Fragment=2)         19.51     13.36     14.99 
 H(Fragment=2)         18.45     13.72     13.97 
 O(Fragment=2)         11.17     18.28     18.2 
 H(Fragment=2)         12.1      18.12     18.06 
 H(Fragment=2)         10.98     17.86     19.04 
 O(Fragment=2)         27.24     18.5      25.62 
 H(Fragment=2)         26.58     18.85     25.03 
 H(Fragment=2)         27.63     17.77     25.15 
 O(Fragment=2)         27.05     20.65     14.3 
 H(Fragment=2)         27.31     19.74     14.16 
 H(Fragment=2)         26.09     20.63     14.28 
 O(Fragment=2)         25.24     14.39     15.89 
 H(Fragment=2)         24.84     13.59     16.23 
 H(Fragment=2)         24.58     14.77     15.31 
 O(Fragment=2)         21.29     20.12     28.29 
 H(Fragment=2)         21.55     20.62     29.06 
 H(Fragment=2)         21.22     19.22     28.59 
 O(Fragment=2)         25.36     27.57     20.92 
 H(Fragment=2)         24.95     26.83     20.47 
 H(Fragment=2)         24.9      27.62     21.76 
 O(Fragment=2)         21.08     24.1      12.31 
 H(Fragment=2)         20.28     24.41     12.74 
 H(Fragment=2)         21.73     24.77     12.51 
 O(Fragment=2)         28.46     19.99     17.74 
 H(Fragment=2)         28.17     19.1      17.58 
 H(Fragment=2)         29.4      19.97     17.55 
 O(Fragment=2)         19.34     15.63     28.37 
 H(Fragment=2)         19.39     16.47     28.83 
 H(Fragment=2)         19.02     15.85     27.5 
 O(Fragment=2)         25.77     13.03     19.55 
 H(Fragment=2)         26.03     13.88     19.18 
 H(Fragment=2)         26.48     12.81     20.15 
 O(Fragment=2)         15.18     27.82     18.95 
 H(Fragment=2)         14.89     28.68     19.27 
 H(Fragment=2)         16.05     27.7      19.34 
 O(Fragment=2)         10.85     20.83     17.28 
 H(Fragment=2)         11.65     20.88     17.8 
 H(Fragment=2)         10.65     19.9      17.24 
 O(Fragment=2)         17.96     29.1      18.13 
 H(Fragment=2)         18.89     28.92     17.97 
 H(Fragment=2)         17.62     28.28     18.5 
 O(Fragment=2)         27.37     16.48     23.37 
 H(Fragment=2)         27.96     15.78     23.09 
 H(Fragment=2)         27.75     17.28     23.02 
 O(Fragment=2)         14.51     13.05     18.98 
 H(Fragment=2)         14.84     13.19     18.1 
 H(Fragment=2)         14.6      12.11     19.14 
 O(Fragment=2)         13.87     26.14     16.64 
 H(Fragment=2)         14.54     25.66     16.15 
 H(Fragment=2)         14.29     26.96     16.88 
 O(Fragment=2)         19.04     25.56     13.07 
 H(Fragment=2)         19.06     26.32     12.49 
 H(Fragment=2)         18.22     25.66     13.55 
 O(Fragment=2)         11.16     17.01     20.83 
 H(Fragment=2)         11.98     16.64     21.14 
 H(Fragment=2)         10.66     17.19     21.63 
 O(Fragment=2)         26.58     16.46     14.8 
 H(Fragment=2)         26.18     16.59     13.94 
 H(Fragment=2)         26.06     15.78     15.21 
 O(Fragment=2)         28.86     20.24     23.3 
 H(Fragment=2)         28.65     21.13     23.6 
 H(Fragment=2)         28.53     20.2      22.4 
 O(Fragment=2)         15.75     12.91     16.67 
 H(Fragment=2)         16.48     12.33     16.9 
 H(Fragment=2)         15.37     12.51     15.89 
 O(Fragment=2)         27.23     23.3      14.25 
 H(Fragment=2)         26.44     23.3      14.79 
 H(Fragment=2)         27.29     22.42     13.9 
 O(Fragment=2)         20.53     18.87     11.16 
 H(Fragment=2)         21.29     18.73     10.6 
 H(Fragment=2)         20.02     18.06     11.08 
 O(Fragment=2)         23.91     28.36     16.54 
 H(Fragment=2)         24.61     28.07     17.12 
 H(Fragment=2)         23.36     27.58     16.42 
 O(Fragment=2)         19.44     10.92     19.98 
 H(Fragment=2)         18.53     11.06     20.22 
 H(Fragment=2)         19.5      9.98      19.78 
 O(Fragment=2)         12.29     15.77     15.23 
 H(Fragment=2)         11.72     16.33     14.71 
 H(Fragment=2)         12.84     16.39     15.73 
 O(Fragment=2)         18.1      11.61     17.07 
 H(Fragment=2)         18.06     11.19     16.21 
 H(Fragment=2)         18.96     11.35     17.41 
 
 NAtoms=    385 NQM=      385 NQMF=       0 NMMI=      0 NMMIF=      0
                NMic=       0 NMicF=      0.
                    Isotopes and Nuclear Properties:
 (Nuclear quadrupole moments (NQMom) in fm**2, nuclear magnetic moments (NMagM)
  in nuclear magnetons)

  Atom         1           2           3           4           5           6           7           8           9          10
 IAtWgt=          79          16           1           1          16           1           1          16           1           1
 AtmWgt=  78.9183361  15.9949146   1.0078250   1.0078250  15.9949146   1.0078250   1.0078250  15.9949146   1.0078250   1.0078250
 NucSpn=           3           0           1           1           0           1           1           0           1           1
 AtZEff=   0.0000000   0.0000000   0.0000000   0.0000000   0.0000000   0.0000000   0.0000000   0.0000000   0.0000000   0.0000000
 NQMom=   31.3000000   0.0000000   0.0000000   0.0000000   0.0000000   0.0000000   0.0000000   0.0000000   0.0000000   0.0000000
 NMagM=    2.1063990   0.0000000   2.7928460   2.7928460   0.0000000   2.7928460   2.7928460   0.0000000   2.7928460   2.7928460
 AtZNuc=  35.0000000   8.0000000   1.0000000   1.0000000   8.0000000   1.0000000   1.0000000   8.0000000   1.0000000   1.0000000

  Atom        11          12          13          14          15          16          17          18          19          20
 IAtWgt=          16           1           1          16           1           1          16           1           1          16
 AtmWgt=  15.9949146   1.0078250   1.0078250  15.9949146   1.0078250   1.0078250  15.9949146   1.0078250   1.0078250  15.9949146
 NucSpn=           0           1           1           0           1           1           0           1           1           0
 AtZEff=   0.0000000   0.0000000   0.0000000   0.0000000   0.0000000   0.0000000   0.0000000   0.0000000   0.0000000   0.0000000
 NQMom=    0.0000000   0.0000000   0.0000000   0.0000000   0.0000000   0.0000000   0.0000000   0.0000000   0.0000000   0.0000000
 NMagM=    0.0000000   2.7928460   2.7928460   0.0000000   2.7928460   2.7928460   0.0000000   2.7928460   2.7928460   0.0000000
 AtZNuc=   8.0000000   1.0000000   1.0000000   8.0000000   1.0000000   1.0000000   8.0000000   1.0000000   1.0000000   8.0000000

  Atom        21          22          23          24          25          26          27          28          29          30
 IAtWgt=           1           1          16           1           1          16           1           1          16           1
 AtmWgt=   1.0078250   1.0078250  15.9949146   1.0078250   1.0078250  15.9949146   1.0078250   1.0078250  15.9949146   1.0078250
 NucSpn=           1           1           0           1           1           0           1           1           0           1
 AtZEff=   0.0000000   0.0000000   0.0000000   0.0000000   0.0000000   0.0000000   0.0000000   0.0000000   0.0000000   0.0000000
 NQMom=    0.0000000   0.0000000   0.0000000   0.0000000   0.0000000   0.0000000   0.0000000   0.0000000   0.0000000   0.0000000
 NMagM=    2.7928460   2.7928460   0.0000000   2.7928460   2.7928460   0.0000000   2.7928460   2.7928460   0.0000000   2.7928460
 AtZNuc=   1.0000000   1.0000000   8.0000000   1.0000000   1.0000000   8.0000000   1.0000000   1.0000000   8.0000000   1.0000000

  Atom        31          32          33          34          35          36          37          38          39          40
 IAtWgt=           1          16           1           1          16           1           1          16           1           1
 AtmWgt=   1.0078250  15.9949146   1.0078250   1.0078250  15.9949146   1.0078250   1.0078250  15.9949146   1.0078250   1.0078250
 NucSpn=           1           0           1           1           0           1           1           0           1           1
 AtZEff=   0.0000000   0.0000000   0.0000000   0.0000000   0.0000000   0.0000000   0.0000000   0.0000000   0.0000000   0.0000000
 NQMom=    0.0000000   0.0000000   0.0000000   0.0000000   0.0000000   0.0000000   0.0000000   0.0000000   0.0000000   0.0000000
 NMagM=    2.7928460   0.0000000   2.7928460   2.7928460   0.0000000   2.7928460   2.7928460   0.0000000   2.7928460   2.7928460
 AtZNuc=   1.0000000   8.0000000   1.0000000   1.0000000   8.0000000   1.0000000   1.0000000   8.0000000   1.0000000   1.0000000

  Atom        41          42          43          44          45          46          47          48          49          50
 IAtWgt=          16           1           1          16           1           1          16           1           1          16
 AtmWgt=  15.9949146   1.0078250   1.0078250  15.9949146   1.0078250   1.0078250  15.9949146   1.0078250   1.0078250  15.9949146
 NucSpn=           0           1           1           0           1           1           0           1           1           0
 AtZEff=   0.0000000   0.0000000   0.0000000   0.0000000   0.0000000   0.0000000   0.0000000   0.0000000   0.0000000   0.0000000
 NQMom=    0.0000000   0.0000000   0.0000000   0.0000000   0.0000000   0.0000000   0.0000000   0.0000000   0.0000000   0.0000000
 NMagM=    0.0000000   2.7928460   2.7928460   0.0000000   2.7928460   2.7928460   0.0000000   2.7928460   2.7928460   0.0000000
 AtZNuc=   8.0000000   1.0000000   1.0000000   8.0000000   1.0000000   1.0000000   8.0000000   1.0000000   1.0000000   8.0000000

  Atom        51          52          53          54          55          56          57          58          59          60
 IAtWgt=           1           1          16           1           1          16           1           1          16           1
 AtmWgt=   1.0078250   1.0078250  15.9949146   1.0078250   1.0078250  15.9949146   1.0078250   1.0078250  15.9949146   1.0078250
 NucSpn=           1           1           0           1           1           0           1           1           0           1
 AtZEff=   0.0000000   0.0000000   0.0000000   0.0000000   0.0000000   0.0000000   0.0000000   0.0000000   0.0000000   0.0000000
 NQMom=    0.0000000   0.0000000   0.0000000   0.0000000   0.0000000   0.0000000   0.0000000   0.0000000   0.0000000   0.0000000
 NMagM=    2.7928460   2.7928460   0.0000000   2.7928460   2.7928460   0.0000000   2.7928460   2.7928460   0.0000000   2.7928460
 AtZNuc=   1.0000000   1.0000000   8.0000000   1.0000000   1.0000000   8.0000000   1.0000000   1.0000000   8.0000000   1.0000000

  Atom        61          62          63          64          65          66          67          68          69          70
 IAtWgt=           1          16           1           1          16           1           1          16           1           1
 AtmWgt=   1.0078250  15.9949146   1.0078250   1.0078250  15.9949146   1.0078250   1.0078250  15.9949146   1.0078250   1.0078250
 NucSpn=           1           0           1           1           0           1           1           0           1           1
 AtZEff=   0.0000000   0.0000000   0.0000000   0.0000000   0.0000000   0.0000000   0.0000000   0.0000000   0.0000000   0.0000000
 NQMom=    0.0000000   0.0000000   0.0000000   0.0000000   0.0000000   0.0000000   0.0000000   0.0000000   0.0000000   0.0000000
 NMagM=    2.7928460   0.0000000   2.7928460   2.7928460   0.0000000   2.7928460   2.7928460   0.0000000   2.7928460   2.7928460
 AtZNuc=   1.0000000   8.0000000   1.0000000   1.0000000   8.0000000   1.0000000   1.0000000   8.0000000   1.0000000   1.0000000

  Atom        71          72          73          74          75          76          77          78          79          80
 IAtWgt=          16           1           1          16           1           1          16           1           1          16
 AtmWgt=  15.9949146   1.0078250   1.0078250  15.9949146   1.0078250   1.0078250  15.9949146   1.0078250   1.0078250  15.9949146
 NucSpn=           0           1           1           0           1           1           0           1           1           0
 AtZEff=   0.0000000   0.0000000   0.0000000   0.0000000   0.0000000   0.0000000   0.0000000   0.0000000   0.0000000   0.0000000
 NQMom=    0.0000000   0.0000000   0.0000000   0.0000000   0.0000000   0.0000000   0.0000000   0.0000000   0.0000000   0.0000000
 NMagM=    0.0000000   2.7928460   2.7928460   0.0000000   2.7928460   2.7928460   0.0000000   2.7928460   2.7928460   0.0000000
 AtZNuc=   8.0000000   1.0000000   1.0000000   8.0000000   1.0000000   1.0000000   8.0000000   1.0000000   1.0000000   8.0000000

  Atom        81          82          83          84          85          86          87          88          89          90
 IAtWgt=           1           1          16           1           1          16           1           1          16           1
 AtmWgt=   1.0078250   1.0078250  15.9949146   1.0078250   1.0078250  15.9949146   1.0078250   1.0078250  15.9949146   1.0078250
 NucSpn=           1           1           0           1           1           0           1           1           0           1
 AtZEff=   0.0000000   0.0000000   0.0000000   0.0000000   0.0000000   0.0000000   0.0000000   0.0000000   0.0000000   0.0000000
 NQMom=    0.0000000   0.0000000   0.0000000   0.0000000   0.0000000   0.0000000   0.0000000   0.0000000   0.0000000   0.0000000
 NMagM=    2.7928460   2.7928460   0.0000000   2.7928460   2.7928460   0.0000000   2.7928460   2.7928460   0.0000000   2.7928460
 AtZNuc=   1.0000000   1.0000000   8.0000000   1.0000000   1.0000000   8.0000000   1.0000000   1.0000000   8.0000000   1.0000000

  Atom        91          92          93          94          95          96          97          98          99         100
 IAtWgt=           1          16           1           1          16           1           1          16           1           1
 AtmWgt=   1.0078250  15.9949146   1.0078250   1.0078250  15.9949146   1.0078250   1.0078250  15.9949146   1.0078250   1.0078250
 NucSpn=           1           0           1           1           0           1           1           0           1           1
 AtZEff=   0.0000000   0.0000000   0.0000000   0.0000000   0.0000000   0.0000000   0.0000000   0.0000000   0.0000000   0.0000000
 NQMom=    0.0000000   0.0000000   0.0000000   0.0000000   0.0000000   0.0000000   0.0000000   0.0000000   0.0000000   0.0000000
 NMagM=    2.7928460   0.0000000   2.7928460   2.7928460   0.0000000   2.7928460   2.7928460   0.0000000   2.7928460   2.7928460
 AtZNuc=   1.0000000   8.0000000   1.0000000   1.0000000   8.0000000   1.0000000   1.0000000   8.0000000   1.0000000   1.0000000

  Atom       101         102         103         104         105         106         107         108         109         110
 IAtWgt=          16           1           1          16           1           1          16           1           1          16
 AtmWgt=  15.9949146   1.0078250   1.0078250  15.9949146   1.0078250   1.0078250  15.9949146   1.0078250   1.0078250  15.9949146
 NucSpn=           0           1           1           0           1           1           0           1           1           0
 AtZEff=   0.0000000   0.0000000   0.0000000   0.0000000   0.0000000   0.0000000   0.0000000   0.0000000   0.0000000   0.0000000
 NQMom=    0.0000000   0.0000000   0.0000000   0.0000000   0.0000000   0.0000000   0.0000000   0.0000000   0.0000000   0.0000000
 NMagM=    0.0000000   2.7928460   2.7928460   0.0000000   2.7928460   2.7928460   0.0000000   2.7928460   2.7928460   0.0000000
 AtZNuc=   8.0000000   1.0000000   1.0000000   8.0000000   1.0000000   1.0000000   8.0000000   1.0000000   1.0000000   8.0000000

  Atom       111         112         113         114         115         116         117         118         119         120
 IAtWgt=           1           1          16           1           1          16           1           1          16           1
 AtmWgt=   1.0078250   1.0078250  15.9949146   1.0078250   1.0078250  15.9949146   1.0078250   1.0078250  15.9949146   1.0078250
 NucSpn=           1           1           0           1           1           0           1           1           0           1
 AtZEff=   0.0000000   0.0000000   0.0000000   0.0000000   0.0000000   0.0000000   0.0000000   0.0000000   0.0000000   0.0000000
 NQMom=    0.0000000   0.0000000   0.0000000   0.0000000   0.0000000   0.0000000   0.0000000   0.0000000   0.0000000   0.0000000
 NMagM=    2.7928460   2.7928460   0.0000000   2.7928460   2.7928460   0.0000000   2.7928460   2.7928460   0.0000000   2.7928460
 AtZNuc=   1.0000000   1.0000000   8.0000000   1.0000000   1.0000000   8.0000000   1.0000000   1.0000000   8.0000000   1.0000000

  Atom       121         122         123         124         125         126         127         128         129         130
 IAtWgt=           1          16           1           1          16           1           1          16           1           1
 AtmWgt=   1.0078250  15.9949146   1.0078250   1.0078250  15.9949146   1.0078250   1.0078250  15.9949146   1.0078250   1.0078250
 NucSpn=           1           0           1           1           0           1           1           0           1           1
 AtZEff=   0.0000000   0.0000000   0.0000000   0.0000000   0.0000000   0.0000000   0.0000000   0.0000000   0.0000000   0.0000000
 NQMom=    0.0000000   0.0000000   0.0000000   0.0000000   0.0000000   0.0000000   0.0000000   0.0000000   0.0000000   0.0000000
 NMagM=    2.7928460   0.0000000   2.7928460   2.7928460   0.0000000   2.7928460   2.7928460   0.0000000   2.7928460   2.7928460
 AtZNuc=   1.0000000   8.0000000   1.0000000   1.0000000   8.0000000   1.0000000   1.0000000   8.0000000   1.0000000   1.0000000

  Atom       131         132         133         134         135         136         137         138         139         140
 IAtWgt=          16           1           1          16           1           1          16           1           1          16
 AtmWgt=  15.9949146   1.0078250   1.0078250  15.9949146   1.0078250   1.0078250  15.9949146   1.0078250   1.0078250  15.9949146
 NucSpn=           0           1           1           0           1           1           0           1           1           0
 AtZEff=   0.0000000   0.0000000   0.0000000   0.0000000   0.0000000   0.0000000   0.0000000   0.0000000   0.0000000   0.0000000
 NQMom=    0.0000000   0.0000000   0.0000000   0.0000000   0.0000000   0.0000000   0.0000000   0.0000000   0.0000000   0.0000000
 NMagM=    0.0000000   2.7928460   2.7928460   0.0000000   2.7928460   2.7928460   0.0000000   2.7928460   2.7928460   0.0000000
 AtZNuc=   8.0000000   1.0000000   1.0000000   8.0000000   1.0000000   1.0000000   8.0000000   1.0000000   1.0000000   8.0000000

  Atom       141         142         143         144         145         146         147         148         149         150
 IAtWgt=           1           1          16           1           1          16           1           1          16           1
 AtmWgt=   1.0078250   1.0078250  15.9949146   1.0078250   1.0078250  15.9949146   1.0078250   1.0078250  15.9949146   1.0078250
 NucSpn=           1           1           0           1           1           0           1           1           0           1
 AtZEff=   0.0000000   0.0000000   0.0000000   0.0000000   0.0000000   0.0000000   0.0000000   0.0000000   0.0000000   0.0000000
 NQMom=    0.0000000   0.0000000   0.0000000   0.0000000   0.0000000   0.0000000   0.0000000   0.0000000   0.0000000   0.0000000
 NMagM=    2.7928460   2.7928460   0.0000000   2.7928460   2.7928460   0.0000000   2.7928460   2.7928460   0.0000000   2.7928460
 AtZNuc=   1.0000000   1.0000000   8.0000000   1.0000000   1.0000000   8.0000000   1.0000000   1.0000000   8.0000000   1.0000000

  Atom       151         152         153         154         155         156         157         158         159         160
 IAtWgt=           1          16           1           1          16           1           1          16           1           1
 AtmWgt=   1.0078250  15.9949146   1.0078250   1.0078250  15.9949146   1.0078250   1.0078250  15.9949146   1.0078250   1.0078250
 NucSpn=           1           0           1           1           0           1           1           0           1           1
 AtZEff=   0.0000000   0.0000000   0.0000000   0.0000000   0.0000000   0.0000000   0.0000000   0.0000000   0.0000000   0.0000000
 NQMom=    0.0000000   0.0000000   0.0000000   0.0000000   0.0000000   0.0000000   0.0000000   0.0000000   0.0000000   0.0000000
 NMagM=    2.7928460   0.0000000   2.7928460   2.7928460   0.0000000   2.7928460   2.7928460   0.0000000   2.7928460   2.7928460
 AtZNuc=   1.0000000   8.0000000   1.0000000   1.0000000   8.0000000   1.0000000   1.0000000   8.0000000   1.0000000   1.0000000

  Atom       161         162         163         164         165         166         167         168         169         170
 IAtWgt=          16           1           1          16           1           1          16           1           1          16
 AtmWgt=  15.9949146   1.0078250   1.0078250  15.9949146   1.0078250   1.0078250  15.9949146   1.0078250   1.0078250  15.9949146
 NucSpn=           0           1           1           0           1           1           0           1           1           0
 AtZEff=   0.0000000   0.0000000   0.0000000   0.0000000   0.0000000   0.0000000   0.0000000   0.0000000   0.0000000   0.0000000
 NQMom=    0.0000000   0.0000000   0.0000000   0.0000000   0.0000000   0.0000000   0.0000000   0.0000000   0.0000000   0.0000000
 NMagM=    0.0000000   2.7928460   2.7928460   0.0000000   2.7928460   2.7928460   0.0000000   2.7928460   2.7928460   0.0000000
 AtZNuc=   8.0000000   1.0000000   1.0000000   8.0000000   1.0000000   1.0000000   8.0000000   1.0000000   1.0000000   8.0000000

  Atom       171         172         173         174         175         176         177         178         179         180
 IAtWgt=           1           1          16           1           1          16           1           1          16           1
 AtmWgt=   1.0078250   1.0078250  15.9949146   1.0078250   1.0078250  15.9949146   1.0078250   1.0078250  15.9949146   1.0078250
 NucSpn=           1           1           0           1           1           0           1           1           0           1
 AtZEff=   0.0000000   0.0000000   0.0000000   0.0000000   0.0000000   0.0000000   0.0000000   0.0000000   0.0000000   0.0000000
 NQMom=    0.0000000   0.0000000   0.0000000   0.0000000   0.0000000   0.0000000   0.0000000   0.0000000   0.0000000   0.0000000
 NMagM=    2.7928460   2.7928460   0.0000000   2.7928460   2.7928460   0.0000000   2.7928460   2.7928460   0.0000000   2.7928460
 AtZNuc=   1.0000000   1.0000000   8.0000000   1.0000000   1.0000000   8.0000000   1.0000000   1.0000000   8.0000000   1.0000000

  Atom       181         182         183         184         185         186         187         188         189         190
 IAtWgt=           1          16           1           1          16           1           1          16           1           1
 AtmWgt=   1.0078250  15.9949146   1.0078250   1.0078250  15.9949146   1.0078250   1.0078250  15.9949146   1.0078250   1.0078250
 NucSpn=           1           0           1           1           0           1           1           0           1           1
 AtZEff=   0.0000000   0.0000000   0.0000000   0.0000000   0.0000000   0.0000000   0.0000000   0.0000000   0.0000000   0.0000000
 NQMom=    0.0000000   0.0000000   0.0000000   0.0000000   0.0000000   0.0000000   0.0000000   0.0000000   0.0000000   0.0000000
 NMagM=    2.7928460   0.0000000   2.7928460   2.7928460   0.0000000   2.7928460   2.7928460   0.0000000   2.7928460   2.7928460
 AtZNuc=   1.0000000   8.0000000   1.0000000   1.0000000   8.0000000   1.0000000   1.0000000   8.0000000   1.0000000   1.0000000

  Atom       191         192         193         194         195         196         197         198         199         200
 IAtWgt=          16           1           1          16           1           1          16           1           1          16
 AtmWgt=  15.9949146   1.0078250   1.0078250  15.9949146   1.0078250   1.0078250  15.9949146   1.0078250   1.0078250  15.9949146
 NucSpn=           0           1           1           0           1           1           0           1           1           0
 AtZEff=   0.0000000   0.0000000   0.0000000   0.0000000   0.0000000   0.0000000   0.0000000   0.0000000   0.0000000   0.0000000
 NQMom=    0.0000000   0.0000000   0.0000000   0.0000000   0.0000000   0.0000000   0.0000000   0.0000000   0.0000000   0.0000000
 NMagM=    0.0000000   2.7928460   2.7928460   0.0000000   2.7928460   2.7928460   0.0000000   2.7928460   2.7928460   0.0000000
 AtZNuc=   8.0000000   1.0000000   1.0000000   8.0000000   1.0000000   1.0000000   8.0000000   1.0000000   1.0000000   8.0000000

  Atom       201         202         203         204         205         206         207         208         209         210
 IAtWgt=           1           1          16           1           1          16           1           1          16           1
 AtmWgt=   1.0078250   1.0078250  15.9949146   1.0078250   1.0078250  15.9949146   1.0078250   1.0078250  15.9949146   1.0078250
 NucSpn=           1           1           0           1           1           0           1           1           0           1
 AtZEff=   0.0000000   0.0000000   0.0000000   0.0000000   0.0000000   0.0000000   0.0000000   0.0000000   0.0000000   0.0000000
 NQMom=    0.0000000   0.0000000   0.0000000   0.0000000   0.0000000   0.0000000   0.0000000   0.0000000   0.0000000   0.0000000
 NMagM=    2.7928460   2.7928460   0.0000000   2.7928460   2.7928460   0.0000000   2.7928460   2.7928460   0.0000000   2.7928460
 AtZNuc=   1.0000000   1.0000000   8.0000000   1.0000000   1.0000000   8.0000000   1.0000000   1.0000000   8.0000000   1.0000000

  Atom       211         212         213         214         215         216         217         218         219         220
 IAtWgt=           1          16           1           1          16           1           1          16           1           1
 AtmWgt=   1.0078250  15.9949146   1.0078250   1.0078250  15.9949146   1.0078250   1.0078250  15.9949146   1.0078250   1.0078250
 NucSpn=           1           0           1           1           0           1           1           0           1           1
 AtZEff=   0.0000000   0.0000000   0.0000000   0.0000000   0.0000000   0.0000000   0.0000000   0.0000000   0.0000000   0.0000000
 NQMom=    0.0000000   0.0000000   0.0000000   0.0000000   0.0000000   0.0000000   0.0000000   0.0000000   0.0000000   0.0000000
 NMagM=    2.7928460   0.0000000   2.7928460   2.7928460   0.0000000   2.7928460   2.7928460   0.0000000   2.7928460   2.7928460
 AtZNuc=   1.0000000   8.0000000   1.0000000   1.0000000   8.0000000   1.0000000   1.0000000   8.0000000   1.0000000   1.0000000

  Atom       221         222         223         224         225         226         227         228         229         230
 IAtWgt=          16           1           1          16           1           1          16           1           1          16
 AtmWgt=  15.9949146   1.0078250   1.0078250  15.9949146   1.0078250   1.0078250  15.9949146   1.0078250   1.0078250  15.9949146
 NucSpn=           0           1           1           0           1           1           0           1           1           0
 AtZEff=   0.0000000   0.0000000   0.0000000   0.0000000   0.0000000   0.0000000   0.0000000   0.0000000   0.0000000   0.0000000
 NQMom=    0.0000000   0.0000000   0.0000000   0.0000000   0.0000000   0.0000000   0.0000000   0.0000000   0.0000000   0.0000000
 NMagM=    0.0000000   2.7928460   2.7928460   0.0000000   2.7928460   2.7928460   0.0000000   2.7928460   2.7928460   0.0000000
 AtZNuc=   8.0000000   1.0000000   1.0000000   8.0000000   1.0000000   1.0000000   8.0000000   1.0000000   1.0000000   8.0000000

  Atom       231         232         233         234         235         236         237         238         239         240
 IAtWgt=           1           1          16           1           1          16           1           1          16           1
 AtmWgt=   1.0078250   1.0078250  15.9949146   1.0078250   1.0078250  15.9949146   1.0078250   1.0078250  15.9949146   1.0078250
 NucSpn=           1           1           0           1           1           0           1           1           0           1
 AtZEff=   0.0000000   0.0000000   0.0000000   0.0000000   0.0000000   0.0000000   0.0000000   0.0000000   0.0000000   0.0000000
 NQMom=    0.0000000   0.0000000   0.0000000   0.0000000   0.0000000   0.0000000   0.0000000   0.0000000   0.0000000   0.0000000
 NMagM=    2.7928460   2.7928460   0.0000000   2.7928460   2.7928460   0.0000000   2.7928460   2.7928460   0.0000000   2.7928460
 AtZNuc=   1.0000000   1.0000000   8.0000000   1.0000000   1.0000000   8.0000000   1.0000000   1.0000000   8.0000000   1.0000000

  Atom       241         242         243         244         245         246         247         248         249         250
 IAtWgt=           1          16           1           1          16           1           1          16           1           1
 AtmWgt=   1.0078250  15.9949146   1.0078250   1.0078250  15.9949146   1.0078250   1.0078250  15.9949146   1.0078250   1.0078250
 NucSpn=           1           0           1           1           0           1           1           0           1           1
 AtZEff=   0.0000000   0.0000000   0.0000000   0.0000000   0.0000000   0.0000000   0.0000000   0.0000000   0.0000000   0.0000000
 NQMom=    0.0000000   0.0000000   0.0000000   0.0000000   0.0000000   0.0000000   0.0000000   0.0000000   0.0000000   0.0000000
 NMagM=    2.7928460   0.0000000   2.7928460   2.7928460   0.0000000   2.7928460   2.7928460   0.0000000   2.7928460   2.7928460
 AtZNuc=   1.0000000   8.0000000   1.0000000   1.0000000   8.0000000   1.0000000   1.0000000   8.0000000   1.0000000   1.0000000

  Atom       251         252         253         254         255         256         257         258         259         260
 IAtWgt=          16           1           1          16           1           1          16           1           1          16
 AtmWgt=  15.9949146   1.0078250   1.0078250  15.9949146   1.0078250   1.0078250  15.9949146   1.0078250   1.0078250  15.9949146
 NucSpn=           0           1           1           0           1           1           0           1           1           0
 AtZEff=   0.0000000   0.0000000   0.0000000   0.0000000   0.0000000   0.0000000   0.0000000   0.0000000   0.0000000   0.0000000
 NQMom=    0.0000000   0.0000000   0.0000000   0.0000000   0.0000000   0.0000000   0.0000000   0.0000000   0.0000000   0.0000000
 NMagM=    0.0000000   2.7928460   2.7928460   0.0000000   2.7928460   2.7928460   0.0000000   2.7928460   2.7928460   0.0000000
 AtZNuc=   8.0000000   1.0000000   1.0000000   8.0000000   1.0000000   1.0000000   8.0000000   1.0000000   1.0000000   8.0000000

  Atom       261         262         263         264         265         266         267         268         269         270
 IAtWgt=           1           1          16           1           1          16           1           1          16           1
 AtmWgt=   1.0078250   1.0078250  15.9949146   1.0078250   1.0078250  15.9949146   1.0078250   1.0078250  15.9949146   1.0078250
 NucSpn=           1           1           0           1           1           0           1           1           0           1
 AtZEff=   0.0000000   0.0000000   0.0000000   0.0000000   0.0000000   0.0000000   0.0000000   0.0000000   0.0000000   0.0000000
 NQMom=    0.0000000   0.0000000   0.0000000   0.0000000   0.0000000   0.0000000   0.0000000   0.0000000   0.0000000   0.0000000
 NMagM=    2.7928460   2.7928460   0.0000000   2.7928460   2.7928460   0.0000000   2.7928460   2.7928460   0.0000000   2.7928460
 AtZNuc=   1.0000000   1.0000000   8.0000000   1.0000000   1.0000000   8.0000000   1.0000000   1.0000000   8.0000000   1.0000000

  Atom       271         272         273         274         275         276         277         278         279         280
 IAtWgt=           1          16           1           1          16           1           1          16           1           1
 AtmWgt=   1.0078250  15.9949146   1.0078250   1.0078250  15.9949146   1.0078250   1.0078250  15.9949146   1.0078250   1.0078250
 NucSpn=           1           0           1           1           0           1           1           0           1           1
 AtZEff=   0.0000000   0.0000000   0.0000000   0.0000000   0.0000000   0.0000000   0.0000000   0.0000000   0.0000000   0.0000000
 NQMom=    0.0000000   0.0000000   0.0000000   0.0000000   0.0000000   0.0000000   0.0000000   0.0000000   0.0000000   0.0000000
 NMagM=    2.7928460   0.0000000   2.7928460   2.7928460   0.0000000   2.7928460   2.7928460   0.0000000   2.7928460   2.7928460
 AtZNuc=   1.0000000   8.0000000   1.0000000   1.0000000   8.0000000   1.0000000   1.0000000   8.0000000   1.0000000   1.0000000

  Atom       281         282         283         284         285         286         287         288         289         290
 IAtWgt=          16           1           1          16           1           1          16           1           1          16
 AtmWgt=  15.9949146   1.0078250   1.0078250  15.9949146   1.0078250   1.0078250  15.9949146   1.0078250   1.0078250  15.9949146
 NucSpn=           0           1           1           0           1           1           0           1           1           0
 AtZEff=   0.0000000   0.0000000   0.0000000   0.0000000   0.0000000   0.0000000   0.0000000   0.0000000   0.0000000   0.0000000
 NQMom=    0.0000000   0.0000000   0.0000000   0.0000000   0.0000000   0.0000000   0.0000000   0.0000000   0.0000000   0.0000000
 NMagM=    0.0000000   2.7928460   2.7928460   0.0000000   2.7928460   2.7928460   0.0000000   2.7928460   2.7928460   0.0000000
 AtZNuc=   8.0000000   1.0000000   1.0000000   8.0000000   1.0000000   1.0000000   8.0000000   1.0000000   1.0000000   8.0000000

  Atom       291         292         293         294         295         296         297         298         299         300
 IAtWgt=           1           1          16           1           1          16           1           1          16           1
 AtmWgt=   1.0078250   1.0078250  15.9949146   1.0078250   1.0078250  15.9949146   1.0078250   1.0078250  15.9949146   1.0078250
 NucSpn=           1           1           0           1           1           0           1           1           0           1
 AtZEff=   0.0000000   0.0000000   0.0000000   0.0000000   0.0000000   0.0000000   0.0000000   0.0000000   0.0000000   0.0000000
 NQMom=    0.0000000   0.0000000   0.0000000   0.0000000   0.0000000   0.0000000   0.0000000   0.0000000   0.0000000   0.0000000
 NMagM=    2.7928460   2.7928460   0.0000000   2.7928460   2.7928460   0.0000000   2.7928460   2.7928460   0.0000000   2.7928460
 AtZNuc=   1.0000000   1.0000000   8.0000000   1.0000000   1.0000000   8.0000000   1.0000000   1.0000000   8.0000000   1.0000000

  Atom       301         302         303         304         305         306         307         308         309         310
 IAtWgt=           1          16           1           1          16           1           1          16           1           1
 AtmWgt=   1.0078250  15.9949146   1.0078250   1.0078250  15.9949146   1.0078250   1.0078250  15.9949146   1.0078250   1.0078250
 NucSpn=           1           0           1           1           0           1           1           0           1           1
 AtZEff=   0.0000000   0.0000000   0.0000000   0.0000000   0.0000000   0.0000000   0.0000000   0.0000000   0.0000000   0.0000000
 NQMom=    0.0000000   0.0000000   0.0000000   0.0000000   0.0000000   0.0000000   0.0000000   0.0000000   0.0000000   0.0000000
 NMagM=    2.7928460   0.0000000   2.7928460   2.7928460   0.0000000   2.7928460   2.7928460   0.0000000   2.7928460   2.7928460
 AtZNuc=   1.0000000   8.0000000   1.0000000   1.0000000   8.0000000   1.0000000   1.0000000   8.0000000   1.0000000   1.0000000

  Atom       311         312         313         314         315         316         317         318         319         320
 IAtWgt=          16           1           1          16           1           1          16           1           1          16
 AtmWgt=  15.9949146   1.0078250   1.0078250  15.9949146   1.0078250   1.0078250  15.9949146   1.0078250   1.0078250  15.9949146
 NucSpn=           0           1           1           0           1           1           0           1           1           0
 AtZEff=   0.0000000   0.0000000   0.0000000   0.0000000   0.0000000   0.0000000   0.0000000   0.0000000   0.0000000   0.0000000
 NQMom=    0.0000000   0.0000000   0.0000000   0.0000000   0.0000000   0.0000000   0.0000000   0.0000000   0.0000000   0.0000000
 NMagM=    0.0000000   2.7928460   2.7928460   0.0000000   2.7928460   2.7928460   0.0000000   2.7928460   2.7928460   0.0000000
 AtZNuc=   8.0000000   1.0000000   1.0000000   8.0000000   1.0000000   1.0000000   8.0000000   1.0000000   1.0000000   8.0000000

  Atom       321         322         323         324         325         326         327         328         329         330
 IAtWgt=           1           1          16           1           1          16           1           1          16           1
 AtmWgt=   1.0078250   1.0078250  15.9949146   1.0078250   1.0078250  15.9949146   1.0078250   1.0078250  15.9949146   1.0078250
 NucSpn=           1           1           0           1           1           0           1           1           0           1
 AtZEff=   0.0000000   0.0000000   0.0000000   0.0000000   0.0000000   0.0000000   0.0000000   0.0000000   0.0000000   0.0000000
 NQMom=    0.0000000   0.0000000   0.0000000   0.0000000   0.0000000   0.0000000   0.0000000   0.0000000   0.0000000   0.0000000
 NMagM=    2.7928460   2.7928460   0.0000000   2.7928460   2.7928460   0.0000000   2.7928460   2.7928460   0.0000000   2.7928460
 AtZNuc=   1.0000000   1.0000000   8.0000000   1.0000000   1.0000000   8.0000000   1.0000000   1.0000000   8.0000000   1.0000000

  Atom       331         332         333         334         335         336         337         338         339         340
 IAtWgt=           1          16           1           1          16           1           1          16           1           1
 AtmWgt=   1.0078250  15.9949146   1.0078250   1.0078250  15.9949146   1.0078250   1.0078250  15.9949146   1.0078250   1.0078250
 NucSpn=           1           0           1           1           0           1           1           0           1           1
 AtZEff=   0.0000000   0.0000000   0.0000000   0.0000000   0.0000000   0.0000000   0.0000000   0.0000000   0.0000000   0.0000000
 NQMom=    0.0000000   0.0000000   0.0000000   0.0000000   0.0000000   0.0000000   0.0000000   0.0000000   0.0000000   0.0000000
 NMagM=    2.7928460   0.0000000   2.7928460   2.7928460   0.0000000   2.7928460   2.7928460   0.0000000   2.7928460   2.7928460
 AtZNuc=   1.0000000   8.0000000   1.0000000   1.0000000   8.0000000   1.0000000   1.0000000   8.0000000   1.0000000   1.0000000

  Atom       341         342         343         344         345         346         347         348         349         350
 IAtWgt=          16           1           1          16           1           1          16           1           1          16
 AtmWgt=  15.9949146   1.0078250   1.0078250  15.9949146   1.0078250   1.0078250  15.9949146   1.0078250   1.0078250  15.9949146
 NucSpn=           0           1           1           0           1           1           0           1           1           0
 AtZEff=   0.0000000   0.0000000   0.0000000   0.0000000   0.0000000   0.0000000   0.0000000   0.0000000   0.0000000   0.0000000
 NQMom=    0.0000000   0.0000000   0.0000000   0.0000000   0.0000000   0.0000000   0.0000000   0.0000000   0.0000000   0.0000000
 NMagM=    0.0000000   2.7928460   2.7928460   0.0000000   2.7928460   2.7928460   0.0000000   2.7928460   2.7928460   0.0000000
 AtZNuc=   8.0000000   1.0000000   1.0000000   8.0000000   1.0000000   1.0000000   8.0000000   1.0000000   1.0000000   8.0000000

  Atom       351         352         353         354         355         356         357         358         359         360
 IAtWgt=           1           1          16           1           1          16           1           1          16           1
 AtmWgt=   1.0078250   1.0078250  15.9949146   1.0078250   1.0078250  15.9949146   1.0078250   1.0078250  15.9949146   1.0078250
 NucSpn=           1           1           0           1           1           0           1           1           0           1
 AtZEff=   0.0000000   0.0000000   0.0000000   0.0000000   0.0000000   0.0000000   0.0000000   0.0000000   0.0000000   0.0000000
 NQMom=    0.0000000   0.0000000   0.0000000   0.0000000   0.0000000   0.0000000   0.0000000   0.0000000   0.0000000   0.0000000
 NMagM=    2.7928460   2.7928460   0.0000000   2.7928460   2.7928460   0.0000000   2.7928460   2.7928460   0.0000000   2.7928460
 AtZNuc=   1.0000000   1.0000000   8.0000000   1.0000000   1.0000000   8.0000000   1.0000000   1.0000000   8.0000000   1.0000000

  Atom       361         362         363         364         365         366         367         368         369         370
 IAtWgt=           1          16           1           1          16           1           1          16           1           1
 AtmWgt=   1.0078250  15.9949146   1.0078250   1.0078250  15.9949146   1.0078250   1.0078250  15.9949146   1.0078250   1.0078250
 NucSpn=           1           0           1           1           0           1           1           0           1           1
 AtZEff=   0.0000000   0.0000000   0.0000000   0.0000000   0.0000000   0.0000000   0.0000000   0.0000000   0.0000000   0.0000000
 NQMom=    0.0000000   0.0000000   0.0000000   0.0000000   0.0000000   0.0000000   0.0000000   0.0000000   0.0000000   0.0000000
 NMagM=    2.7928460   0.0000000   2.7928460   2.7928460   0.0000000   2.7928460   2.7928460   0.0000000   2.7928460   2.7928460
 AtZNuc=   1.0000000   8.0000000   1.0000000   1.0000000   8.0000000   1.0000000   1.0000000   8.0000000   1.0000000   1.0000000

  Atom       371         372         373         374         375         376         377         378         379         380
 IAtWgt=          16           1           1          16           1           1          16           1           1          16
 AtmWgt=  15.9949146   1.0078250   1.0078250  15.9949146   1.0078250   1.0078250  15.9949146   1.0078250   1.0078250  15.9949146
 NucSpn=           0           1           1           0           1           1           0           1           1           0
 AtZEff=   0.0000000   0.0000000   0.0000000   0.0000000   0.0000000   0.0000000   0.0000000   0.0000000   0.0000000   0.0000000
 NQMom=    0.0000000   0.0000000   0.0000000   0.0000000   0.0000000   0.0000000   0.0000000   0.0000000   0.0000000   0.0000000
 NMagM=    0.0000000   2.7928460   2.7928460   0.0000000   2.7928460   2.7928460   0.0000000   2.7928460   2.7928460   0.0000000
 AtZNuc=   8.0000000   1.0000000   1.0000000   8.0000000   1.0000000   1.0000000   8.0000000   1.0000000   1.0000000   8.0000000

  Atom       381         382         383         384         385
 IAtWgt=           1           1          16           1           1
 AtmWgt=   1.0078250   1.0078250  15.9949146   1.0078250   1.0078250
 NucSpn=           1           1           0           1           1
 AtZEff=   0.0000000   0.0000000   0.0000000   0.0000000   0.0000000
 NQMom=    0.0000000   0.0000000   0.0000000   0.0000000   0.0000000
 NMagM=    2.7928460   2.7928460   0.0000000   2.7928460   2.7928460
 AtZNuc=   1.0000000   1.0000000   8.0000000   1.0000000   1.0000000
 Leave Link  101 at Fri May  4 20:08:52 2018, MaxMem= 14763950080 cpu:        33.2
 (Enter /cm/shared/gaussian/g09.e01/intel64-sandybridge/g09/l103.exe)

 GradGradGradGradGradGradGradGradGradGradGradGradGradGradGradGradGradGrad
 Berny optimization.
 Initialization pass.
 Trust Radius=3.00D-01 FncErr=1.00D-07 GrdErr=1.00D-07
 Number of steps in this run=      2 maximum allowed number of steps=      2.
 GradGradGradGradGradGradGradGradGradGradGradGradGradGradGradGradGradGrad

 Leave Link  103 at Fri May  4 20:08:52 2018, MaxMem= 14763950080 cpu:         3.8
 (Enter /cm/shared/gaussian/g09.e01/intel64-sandybridge/g09/l202.exe)
 Symmetry turned off by external request.
 Stoichiometry    BrH256O128(1-)
 Framework group  C1[X(BrH256O128)]
 Deg. of freedom  1149
 Full point group                 C1      NOp   1
                          Input orientation:                          
 ---------------------------------------------------------------------
 Center     Atomic      Atomic             Coordinates (Angstroms)
 Number     Number       Type             X           Y           Z
 ---------------------------------------------------------------------
      1         35           0       20.000000   20.000000   20.000000
      2          8           0       19.230000   17.030000   19.900000
      3          1           0       19.480000   17.950000   19.930000
      4          1           0       18.620000   16.930000   20.630000
      5          8           0       21.070000   22.830000   19.280000
      6          1           0       20.630000   23.010000   18.450000
      7          1           0       20.780000   21.940000   19.520000
      8          8           0       21.520000   21.360000   22.460000
      9          1           0       20.990000   22.150000   22.410000
     10          1           0       21.170000   20.790000   21.780000
     11          8           0       23.130000   20.250000   19.190000
     12          1           0       22.810000   20.690000   18.400000
     13          1           0       22.350000   20.130000   19.730000
     14          8           0       17.240000   19.030000   21.700000
     15          1           0       18.060000   19.380000   21.350000
     16          1           0       16.870000   19.740000   22.220000
     17          8           0       18.400000   23.810000   19.740000
     18          1           0       18.560000   22.890000   19.550000
     19          1           0       17.510000   23.970000   19.410000
     20          8           0       20.830000   18.880000   23.740000
     21          1           0       20.580000   19.630000   23.190000
     22          1           0       20.390000   19.040000   24.570000
     23          8           0       21.740000   20.030000   16.070000
     24          1           0       21.070000   20.040000   16.760000
     25          1           0       22.190000   20.870000   16.170000
     26          8           0       16.200000   19.630000   19.030000
     27          1           0       16.590000   19.370000   19.870000
     28          1           0       16.850000   20.210000   18.630000
     29          8           0       17.990000   21.190000   23.380000
     30          1           0       18.910000   21.340000   23.210000
     31          1           0       17.530000   21.750000   22.760000
     32          8           0       19.520000   23.210000   22.260000
     33          1           0       19.350000   23.520000   21.370000
     34          1           0       19.510000   24.000000   22.790000
     35          8           0       17.510000   16.620000   17.800000
     36          1           0       16.900000   16.010000   18.230000
     37          1           0       17.810000   17.200000   18.500000
     38          8           0       17.330000   21.530000   17.510000
     39          1           0       17.780000   20.890000   16.960000
     40          1           0       16.990000   22.180000   16.900000
     41          8           0       19.860000   17.880000   16.260000
     42          1           0       20.690000   18.320000   16.430000
     43          1           0       19.660000   17.410000   17.070000
     44          8           0       23.350000   23.350000   20.960000
     45          1           0       22.570000   22.950000   20.570000
     46          1           0       23.940000   22.610000   21.120000
     47          8           0       23.540000   18.850000   22.510000
     48          1           0       22.750000   18.570000   22.960000
     49          1           0       23.350000   19.750000   22.240000
     50          8           0       19.480000   16.460000   23.490000
     51          1           0       20.050000   17.230000   23.450000
     52          1           0       20.030000   15.780000   23.870000
     53          8           0       18.450000   20.090000   15.670000
     54          1           0       18.850000   19.220000   15.760000
     55          1           0       18.300000   20.190000   14.730000
     56          8           0       24.990000   18.620000   18.480000
     57          1           0       24.320000   19.230000   18.810000
     58          1           0       24.500000   18.030000   17.910000
     59          8           0       22.710000   22.590000   16.870000
     60          1           0       22.810000   23.030000   17.710000
     61          1           0       22.210000   23.210000   16.330000
     62          8           0       25.030000   21.240000   21.040000
     63          1           0       25.940000   20.950000   21.100000
     64          1           0       24.660000   20.750000   20.310000
     65          8           0       15.800000   22.100000   22.340000
     66          1           0       16.130000   22.370000   21.480000
     67          1           0       14.850000   22.080000   22.230000
     68          8           0       21.700000   25.470000   19.710000
     69          1           0       21.900000   25.930000   20.540000
     70          1           0       21.390000   24.610000   19.980000
     71          8           0       18.780000   14.390000   19.290000
     72          1           0       18.880000   14.050000   18.400000
     73          1           0       19.160000   15.270000   19.250000
     74          8           0       16.850000   16.370000   22.480000
     75          1           0       17.800000   16.360000   22.550000
     76          1           0       16.630000   17.300000   22.340000
     77          8           0       19.820000   24.440000   17.130000
     78          1           0       19.670000   23.710000   16.520000
     79          1           0       19.130000   24.350000   17.780000
     80          8           0       23.620000   22.630000   23.900000
     81          1           0       23.210000   22.250000   24.670000
     82          1           0       22.970000   22.520000   23.200000
     83          8           0       23.570000   16.130000   22.200000
     84          1           0       23.810000   15.760000   23.050000
     85          1           0       23.550000   17.070000   22.350000
     86          8           0       16.500000   18.700000   24.760000
     87          1           0       16.050000   18.110000   24.150000
     88          1           0       17.280000   18.980000   24.290000
     89          8           0       15.300000   19.270000   16.330000
     90          1           0       16.080000   19.750000   16.600000
     91          1           0       14.800000   19.900000   15.820000
     92          8           0       19.190000   22.990000   14.830000
     93          1           0       19.560000   23.030000   13.950000
     94          1           0       19.030000   22.060000   14.980000
     95          8           0       21.630000   14.410000   21.120000
     96          1           0       20.810000   14.560000   21.590000
     97          1           0       22.210000   15.110000   21.400000
     98          8           0       13.990000   19.180000   20.540000
     99          1           0       14.380000   18.400000   20.930000
    100          1           0       14.400000   19.240000   19.680000
    101          8           0       23.780000   16.720000   17.040000
    102          1           0       23.380000   16.690000   16.170000
    103          1           0       23.590000   15.870000   17.420000
    104          8           0       13.610000   21.130000   18.120000
    105          1           0       14.430000   20.820000   18.490000
    106          1           0       13.130000   21.510000   18.850000
    107          8           0       22.030000   18.570000   13.710000
    108          1           0       21.830000   19.010000   14.530000
    109          1           0       21.250000   18.700000   13.170000
    110          8           0       20.740000   22.260000   25.650000
    111          1           0       21.280000   21.480000   25.690000
    112          1           0       19.840000   21.940000   25.590000
    113          8           0       16.230000   16.890000   15.410000
    114          1           0       16.730000   16.650000   16.190000
    115          1           0       15.700000   17.640000   15.690000
    116          8           0       17.990000   22.410000   25.730000
    117          1           0       17.930000   23.300000   25.370000
    118          1           0       17.450000   21.870000   25.160000
    119          8           0       16.420000   24.480000   17.880000
    120          1           0       15.940000   24.260000   17.080000
    121          1           0       15.840000   25.090000   18.340000
    122          8           0       16.130000   24.640000   21.000000
    123          1           0       15.200000   24.490000   21.130000
    124          1           0       16.410000   25.110000   21.790000
    125          8           0       15.270000   15.940000   19.780000
    126          1           0       14.500000   15.380000   19.710000
    127          1           0       15.750000   15.590000   20.540000
    128          8           0       19.670000   19.660000   26.150000
    129          1           0       18.890000   19.200000   26.470000
    130          1           0       20.130000   19.920000   26.950000
    131          8           0       22.780000   25.860000   17.300000
    132          1           0       23.450000   25.960000   17.980000
    133          1           0       22.070000   25.370000   17.730000
    134          8           0       23.240000   14.670000   18.560000
    135          1           0       23.640000   14.020000   19.140000
    136          1           0       22.320000   14.420000   18.510000
    137          8           0       19.420000   16.910000   13.530000
    138          1           0       19.100000   16.050000   13.800000
    139          1           0       19.330000   17.460000   14.300000
    140          8           0       24.790000   25.300000   19.330000
    141          1           0       25.580000   24.760000   19.290000
    142          1           0       24.180000   24.790000   19.870000
    143          8           0       25.600000   20.000000   24.180000
    144          1           0       25.620000   19.730000   23.260000
    145          1           0       24.750000   20.420000   24.290000
    146          8           0       13.760000   17.340000   17.770000
    147          1           0       14.340000   18.030000   17.440000
    148          1           0       14.150000   17.090000   18.610000
    149          8           0       18.650000   13.340000   21.820000
    150          1           0       18.460000   12.400000   21.710000
    151          1           0       18.650000   13.680000   20.920000
    152          8           0       22.990000   25.370000   23.360000
    153          1           0       23.700000   25.920000   23.660000
    154          1           0       23.320000   24.470000   23.450000
    155          8           0       13.190000   21.390000   22.020000
    156          1           0       13.590000   20.710000   21.480000
    157          1           0       12.460000   20.960000   22.460000
    158          8           0       17.540000   26.820000   19.500000
    159          1           0       17.860000   26.480000   20.330000
    160          1           0       17.720000   26.130000   18.860000
    161          8           0       17.460000   16.070000   25.900000
    162          1           0       17.750000   15.280000   25.440000
    163          1           0       17.380000   16.730000   25.210000
    164          8           0       20.110000   25.860000   23.240000
    165          1           0       21.030000   25.700000   23.460000
    166          1           0       20.080000   26.780000   22.990000
    167          8           0       23.010000   20.890000   25.920000
    168          1           0       23.030000   21.240000   26.810000
    169          1           0       23.150000   19.950000   26.030000
    170          8           0       17.240000   24.930000   15.240000
    171          1           0       16.610000   24.460000   14.700000
    172          1           0       18.010000   24.360000   15.270000
    173          8           0       21.690000   15.270000   24.800000
    174          1           0       22.600000   15.220000   25.080000
    175          1           0       21.320000   15.990000   25.310000
    176          8           0       24.420000   19.900000   13.740000
    177          1           0       23.630000   20.110000   14.240000
    178          1           0       24.100000   19.470000   12.950000
    179          8           0       14.470000   22.660000   24.740000
    180          1           0       14.750000   23.270000   25.420000
    181          1           0       15.190000   22.660000   24.110000
    182          8           0       25.310000   23.660000   16.130000
    183          1           0       25.450000   23.460000   17.050000
    184          1           0       24.410000   23.370000   15.960000
    185          8           0       26.680000   17.240000   20.810000
    186          1           0       26.350000   17.300000   19.920000
    187          1           0       25.970000   16.840000   21.310000
    188          8           0       26.070000   15.560000   18.580000
    189          1           0       25.210000   15.810000   18.240000
    190          1           0       26.510000   15.140000   17.840000
    191          8           0       27.350000   19.930000   20.930000
    192          1           0       26.820000   19.130000   20.880000
    193          1           0       27.880000   19.920000   20.130000
    194          8           0       20.640000   13.380000   16.690000
    195          1           0       20.730000   13.470000   17.640000
    196          1           0       21.000000   12.510000   16.500000
    197          8           0       21.400000   12.550000   19.150000
    198          1           0       21.390000   13.130000   19.920000
    199          1           0       20.670000   11.940000   19.300000
    200          8           0       14.690000   23.110000   16.370000
    201          1           0       14.690000   22.950000   15.420000
    202          1           0       14.240000   22.360000   16.740000
    203          8           0       20.250000   27.770000   18.640000
    204          1           0       20.360000   26.970000   19.160000
    205          1           0       21.140000   28.130000   18.560000
    206          8           0       26.390000   23.190000   19.220000
    207          1           0       26.820000   22.850000   20.010000
[...]
   Z337      36.54730   0.00481   0.00000   0.00158   0.00170  36.54901
   X338      20.50353  -0.00908   0.00000  -0.00933  -0.00917  20.49436
   Y338      39.36300   0.02604   0.00000   0.01815   0.01851  39.38150
   Z338      32.65447  -0.01263   0.00000  -0.01313  -0.01429  32.64018
   X339      22.01531   0.00303   0.00000  -0.00223  -0.00213  22.01318
   Y339      39.45748  -0.00843   0.00000  -0.01037  -0.01008  39.44740
   Z339      33.63713  -0.00005   0.00000  -0.00490  -0.00596  33.63116
   X340      20.12558   0.00250   0.00000   0.00467   0.00482  20.13040
   Y340      37.60555  -0.01742   0.00000  -0.00850  -0.00813  37.59742
   Z340      32.57888   0.00954   0.00000   0.01586   0.01459  32.59347
   X341      33.93948  -0.01174   0.00000  -0.01044  -0.01023  33.92925
   Y341      54.99103   0.02142   0.00000   0.02374   0.02389  55.01492
   Z341      34.26073  -0.00409   0.00000  -0.00577  -0.00529  34.25545
   X342      35.69693   0.00181   0.00000  -0.00536  -0.00513  35.69179
   Y342      54.65088  -0.00921   0.00000  -0.00990  -0.00975  54.64113
   Z342      33.95838   0.00307   0.00000   0.00482   0.00539  33.96377
   X343      33.29697   0.00816   0.00000   0.01198   0.01213  33.30910
   Y343      53.44146  -0.00049   0.00000   0.00677   0.00689  53.44835
   Z343      34.95993  -0.00191   0.00000  -0.00575  -0.00539  34.95455
   X344      51.72180  -0.01416   0.00000  -0.00592  -0.00656  51.71524
   Y344      31.14269  -0.00703   0.00000  -0.00048  -0.00101  31.14168
   Z344      44.16290   0.01970   0.00000   0.02149   0.02187  44.18477
   X345      52.83674   0.00390   0.00000  -0.00038  -0.00100  52.83574
   Y345      29.81988  -0.00286   0.00000   0.00077   0.00026  29.82014
   Z345      43.63378  -0.00456   0.00000  -0.00426  -0.00389  43.62989
   X346      52.43990   0.00611   0.00000   0.00065   0.00007  52.43997
   Y346      32.65447   0.01316   0.00000   0.00709   0.00659  32.66106
   Z346      43.50150  -0.01138   0.00000  -0.01169  -0.01119  43.49030
   X347      27.41993  -0.01374   0.00000  -0.00986  -0.01004  27.40989
   Y347      24.66093   0.00881   0.00000   0.01006   0.01019  24.67111
   Z347      35.86700   0.03268   0.00000   0.02728   0.02580  35.89280
   X348      28.04354   0.00782   0.00000   0.00167   0.00160  28.04514
   Y348      24.92549  -0.00089   0.00000  -0.00260  -0.00239  24.92310
   Z348      34.20404  -0.02082   0.00000  -0.00524  -0.00667  34.19737
   X349      27.59000   0.00043   0.00000  -0.00126  -0.00147  27.58853
   Y349      22.88458  -0.00344   0.00000   0.00015   0.00026  22.88484
   Z349      36.16936  -0.00206   0.00000   0.00001  -0.00155  36.16781
   X350      26.21050  -0.01283   0.00000  -0.00986  -0.00953  26.20098
   Y350      49.39744  -0.00961   0.00000  -0.00173  -0.00137  49.39607
   Z350      31.44504  -0.00688   0.00000  -0.00925  -0.00954  31.43550
   X351      27.47662   0.00393   0.00000   0.00305   0.00343  27.48005
   Y351      48.49037  -0.00134   0.00000  -0.00121  -0.00081  48.48957
   Z351      30.51908  -0.00174   0.00000  -0.00083  -0.00108  30.51800
   X352      27.00419   0.01040   0.00000   0.00842   0.00874  27.01292
   Y352      50.94702   0.01288   0.00000   0.00529   0.00562  50.95264
   Z352      31.89858   0.01105   0.00000   0.01517   0.01502  31.91359
   X353      35.98039   0.00481   0.00000  -0.00682  -0.00608  35.97431
   Y353      48.30140  -0.00433   0.00000  -0.00271  -0.00209  48.29931
   Z353      24.69872  -0.00600   0.00000  -0.00633  -0.00606  24.69266
   X354      36.01818   0.00391   0.00000   0.00454   0.00537  36.02355
   Y354      49.73759   0.00784   0.00000   0.00776   0.00843  49.74603
   Z354      23.60268  -0.00620   0.00000  -0.00562  -0.00527  23.59741
   X355      34.43081  -0.01451   0.00000  -0.01042  -0.00974  34.42107
   Y355      48.49037  -0.00206   0.00000  -0.00436  -0.00377  48.48660
   Z355      25.60579   0.02022   0.00000   0.02555   0.02573  25.63152
   X356      21.08934  -0.01266   0.00000  -0.00772  -0.00805  21.08129
   Y356      32.14424   0.00368   0.00000  -0.00023  -0.00022  32.14402
   Z356      39.36300  -0.01139   0.00000  -0.00632  -0.00781  39.35519
   X357      22.63892   0.01235   0.00000   0.00770   0.00733  22.64625
   Y357      31.44504  -0.00138   0.00000   0.00427   0.00423  31.44927
   Z357      39.94881   0.01007   0.00000   0.01129   0.00986  39.95867
   X358      20.14448  -0.00026   0.00000   0.00001  -0.00041  20.14407
   Y358      32.48439   0.00011   0.00000   0.00031   0.00025  32.48464
   Z358      40.87478   0.00295   0.00000   0.00239   0.00085  40.87563
   X359      50.22892   0.01732   0.00000   0.01307   0.01345  50.24237
   Y359      31.10489   0.01505   0.00000   0.01057   0.01089  31.11578
   Z359      27.96795  -0.00624   0.00000  -0.01026  -0.00998  27.95797
   X360      49.47303  -0.00908   0.00000  -0.01234  -0.01185  49.46118
   Y360      31.35056   0.00252   0.00000   0.00382   0.00423  31.35479
   Z360      26.34278  -0.00910   0.00000  -0.00898  -0.00874  26.33405
   X361      49.24626  -0.00262   0.00000   0.00814   0.00846  49.25472
   Y361      29.81988  -0.01219   0.00000  -0.00574  -0.00545  29.81442
   Z361      28.74273   0.00898   0.00000   0.00706   0.00722  28.74995
   X362      54.53750   0.00949   0.00000   0.01053   0.00997  54.54746
   Y362      38.24806  -0.00632   0.00000  -0.00520  -0.00575  38.24231
   Z362      44.03062   0.01132   0.00000   0.00419   0.00511  44.03573
   X363      54.14065  -0.00430   0.00000  -0.00568  -0.00626  54.13439
   Y363      39.92991  -0.00010   0.00000  -0.00349  -0.00406  39.92586
   Z363      44.59754  -0.00080   0.00000  -0.00107  -0.00010  44.59744
   X364      53.91389  -0.00816   0.00000  -0.00862  -0.00907  53.90481
   Y364      38.17247   0.00327   0.00000   0.00459   0.00414  38.17661
   Z364      42.32987  -0.00995   0.00000  -0.00485  -0.00398  42.32589
   X365      29.76319  -0.00212   0.00000   0.00448   0.00458  29.76777
   Y365      24.39636   0.01161   0.00000   0.00980   0.01013  24.40649
   Z365      31.50173  -0.00911   0.00000  -0.01485  -0.01620  31.48554
   X366      31.14269   0.01345   0.00000   0.01186   0.01191  31.15460
   Y366      23.30032  -0.00305   0.00000   0.00296   0.00326  23.30358
   Z366      31.93637   0.00808   0.00000   0.01042   0.00911  31.94548
   X367      29.04509  -0.00903   0.00000  -0.01258  -0.01240  29.03269
   Y367      23.64047  -0.00442   0.00000  -0.00637  -0.00596  23.63452
   Z367      30.02775  -0.00739   0.00000  -0.00665  -0.00808  30.01966
   X368      51.45724   0.01687   0.00000   0.00863   0.00920  51.46644
   Y368      44.03062   0.02062   0.00000   0.01404   0.01440  44.04502
   Z368      26.92860  -0.00917   0.00000  -0.01202  -0.01100  26.91760
   X369      49.96436  -0.01269   0.00000  -0.00254  -0.00204  49.96232
   Y369      44.03062   0.00380   0.00000   0.00828   0.00861  44.03922
   Z369      27.94905   0.01609   0.00000   0.01485   0.01577  27.96482
   X370      51.57063   0.00190   0.00000   0.00312   0.00371  51.57434
   Y370      42.36766  -0.01941   0.00000  -0.01443  -0.01403  42.35363
   Z370      26.26719  -0.00277   0.00000   0.00165   0.00259  26.26979
   X371      38.79608  -0.00769   0.00000  -0.00696  -0.00611  38.78997
   Y371      35.65913   0.00758   0.00000   0.00443   0.00521  35.66435
   Z371      21.08934   0.00765   0.00000   0.00476   0.00456  21.09390
   X372      40.23227   0.00956   0.00000   0.00533   0.00625  40.23852
   Y372      35.39457  -0.00063   0.00000   0.00088   0.00170  35.39627
   Z372      20.03110  -0.00572   0.00000  -0.00167  -0.00180  20.02930
   X373      37.83232  -0.00292   0.00000  -0.00289  -0.00205  37.83027
   Y373      34.12845  -0.00576   0.00000  -0.00559  -0.00479  34.12366
   Z373      20.93817   0.00361   0.00000   0.00749   0.00715  20.94531
   X374      45.18335  -0.00498   0.00000  -0.00534  -0.00496  45.17840
   Y374      53.59263   0.01519   0.00000   0.01114   0.01134  53.60397
   Z374      31.25607  -0.00532   0.00000  -0.00330  -0.00218  31.25389
   X375      46.50616   0.00602   0.00000   0.00177   0.00207  46.50823
   Y375      53.04461  -0.00650   0.00000  -0.00560  -0.00547  53.03914
   Z375      32.35211   0.00566   0.00000   0.00127   0.00245  32.35456
   X376      44.14400  -0.00288   0.00000  -0.00090  -0.00051  44.14349
   Y376      52.11865  -0.00834   0.00000  -0.00551  -0.00529  52.11335
   Z376      31.02930   0.00069   0.00000   0.00056   0.00153  31.03084
   X377      36.73628   0.00850   0.00000   0.00175   0.00142  36.73769
   Y377      20.63581  -0.00422   0.00000  -0.00481  -0.00486  20.63095
   Z377      37.75673  -0.00709   0.00000  -0.00700  -0.00810  37.74863
   X378      35.01663  -0.01425   0.00000  -0.01146  -0.01182  35.00480
   Y378      20.90037   0.00135   0.00000   0.00042   0.00036  20.90073
   Z378      38.21026  -0.00071   0.00000  -0.00419  -0.00539  38.20487
   X379      36.84966   0.00003   0.00000   0.00040   0.00007  36.84973
   Y379      18.85947  -0.00354   0.00000  -0.00700  -0.00704  18.85243
   Z379      37.37878   0.00317   0.00000   0.00626   0.00507  37.38385
   X380      23.22473   0.01044   0.00000   0.00944   0.00975  23.23449
   Y380      29.80098  -0.00778   0.00000  -0.00596  -0.00543  29.79555
   Z380      28.78053   0.00277   0.00000  -0.00040  -0.00188  28.77865
   X381      22.14759  -0.00670   0.00000  -0.00435  -0.00396  22.14363
   Y381      30.85923   0.00841   0.00000   0.00592   0.00651  30.86574
   Z381      27.79787  -0.00310   0.00000   0.00261   0.00112  27.79899
   X382      24.26408  -0.00254   0.00000  -0.00396  -0.00369  24.26039
   Y382      30.97261  -0.00142   0.00000  -0.00300  -0.00253  30.97008
   Z382      29.72539   0.00427   0.00000   0.00922   0.00787  29.73326
   X383      34.20404  -0.00533   0.00000  -0.00616  -0.00613  34.19791
   Y383      21.93972  -0.00229   0.00000  -0.00878  -0.00853  21.93119
   Z383      32.25763   0.00258   0.00000   0.00196   0.00076  32.25839
   X384      34.12845   0.00410   0.00000   0.00791   0.00803  34.13649
   Y384      21.14604  -0.00235   0.00000  -0.00132  -0.00099  21.14505
   Z384      30.63246  -0.01007   0.00000  -0.01059  -0.01183  30.62063
   X385      35.82921   0.00272   0.00000   0.00074   0.00072  35.82993
   Y385      21.44839   0.00272   0.00000   0.00584   0.00604  21.45443
   Z385      32.90013   0.00573   0.00000   0.00903   0.00791  32.90804
         Item               Value     Threshold  Converged?
 Maximum Force            0.033579     0.000450     NO 
 RMS     Force            0.010539     0.000300     NO 
 Maximum Displacement     0.034928     0.001800     NO 
 RMS     Displacement     0.008836     0.001200     NO 
 Predicted change in Energy=-7.340820D-02
 GradGradGradGradGradGradGradGradGradGradGradGradGradGradGradGradGradGrad

 Leave Link  103 at Fri May  4 22:51:00 2018, MaxMem= 14763950080 cpu:      2576.3
 (Enter /cm/shared/gaussian/g09.e01/intel64-sandybridge/g09/l9999.exe)
 1\1\GINC-POPLE01\Force\RPBE1PBE\CC-pVDZ\Br1H256O128(1-)\M.PELUSO\04-Ma
 y-2018\0\\#p PBE1PBE/cc-pvDZ force Counterpoise=2 noSymm\\forces on ch
 loride comput - NWATER: 128\\-1,1\Br,20.,20.,20.\O,19.23,17.03,19.9\H,
 19.48,17.95,19.93\H,18.62,16.93,20.63\O,21.07,22.83,19.28\H,20.63,23.0
 1,18.45\H,20.78,21.94,19.52\O,21.52,21.36,22.46\H,20.99,22.15,22.41\H,
 21.17,20.79,21.78\O,23.13,20.25,19.19\H,22.81,20.69,18.4\H,22.35,20.13
 ,19.73\O,17.24,19.03,21.7\H,18.06,19.38,21.35\H,16.87,19.74,22.22\O,18
 .4,23.81,19.74\H,18.56,22.89,19.55\H,17.51,23.97,19.41\O,20.83,18.88,2
 3.74\H,20.58,19.63,23.19\H,20.39,19.04,24.57\O,21.74,20.03,16.07\H,21.
 07,20.04,16.76\H,22.19,20.87,16.17\O,16.2,19.63,19.03\H,16.59,19.37,19
 .87\H,16.85,20.21,18.63\O,17.99,21.19,23.38\H,18.91,21.34,23.21\H,17.5
 3,21.75,22.76\O,19.52,23.21,22.26\H,19.35,23.52,21.37\H,19.51,24.,22.7
 9\O,17.51,16.62,17.8\H,16.9,16.01,18.23\H,17.81,17.2,18.5\O,17.33,21.5
 3,17.51\H,17.78,20.89,16.96\H,16.99,22.18,16.9\O,19.86,17.88,16.26\H,2
 0.69,18.32,16.43\H,19.66,17.41,17.07\O,23.35,23.35,20.96\H,22.57,22.95
 ,20.57\H,23.94,22.61,21.12\O,23.54,18.85,22.51\H,22.75,18.57,22.96\H,2
 3.35,19.75,22.24\O,19.48,16.46,23.49\H,20.05,17.23,23.45\H,20.03,15.78
 ,23.87\O,18.45,20.09,15.67\H,18.85,19.22,15.76\H,18.3,20.19,14.73\O,24
 .99,18.62,18.48\H,24.32,19.23,18.81\H,24.5,18.03,17.91\O,22.71,22.59,1
 6.87\H,22.81,23.03,17.71\H,22.21,23.21,16.33\O,25.03,21.24,21.04\H,25.
 94,20.95,21.1\H,24.66,20.75,20.31\O,15.8,22.1,22.34\H,16.13,22.37,21.4
 8\H,14.85,22.08,22.23\O,21.7,25.47,19.71\H,21.9,25.93,20.54\H,21.39,24
 .61,19.98\O,18.78,14.39,19.29\H,18.88,14.05,18.4\H,19.16,15.27,19.25\O
 ,16.85,16.37,22.48\H,17.8,16.36,22.55\H,16.63,17.3,22.34\O,19.82,24.44
 ,17.13\H,19.67,23.71,16.52\H,19.13,24.35,17.78\O,23.62,22.63,23.9\H,23
 .21,22.25,24.67\H,22.97,22.52,23.2\O,23.57,16.13,22.2\H,23.81,15.76,23
 .05\H,23.55,17.07,22.35\O,16.5,18.7,24.76\H,16.05,18.11,24.15\H,17.28,
 18.98,24.29\O,15.3,19.27,16.33\H,16.08,19.75,16.6\H,14.8,19.9,15.82\O,
 19.19,22.99,14.83\H,19.56,23.03,13.95\H,19.03,22.06,14.98\O,21.63,14.4
 1,21.12\H,20.81,14.56,21.59\H,22.21,15.11,21.4\O,13.99,19.18,20.54\H,1
 4.38,18.4,20.93\H,14.4,19.24,19.68\O,23.78,16.72,17.04\H,23.38,16.69,1
 6.17\H,23.59,15.87,17.42\O,13.61,21.13,18.12\H,14.43,20.82,18.49\H,13.
 13,21.51,18.85\O,22.03,18.57,13.71\H,21.83,19.01,14.53\H,21.25,18.7,13
 .17\O,20.74,22.26,25.65\H,21.28,21.48,25.69\H,19.84,21.94,25.59\O,16.2
 3,16.89,15.41\H,16.73,16.65,16.19\H,15.7,17.64,15.69\O,17.99,22.41,25.
 73\H,17.93,23.3,25.37\H,17.45,21.87,25.16\O,16.42,24.48,17.88\H,15.94,
 24.26,17.08\H,15.84,25.09,18.34\O,16.13,24.64,21.\H,15.2,24.49,21.13\H
 ,16.41,25.11,21.79\O,15.27,15.94,19.78\H,14.5,15.38,19.71\H,15.75,15.5
 9,20.54\O,19.67,19.66,26.15\H,18.89,19.2,26.47\H,20.13,19.92,26.95\O,2
 2.78,25.86,17.3\H,23.45,25.96,17.98\H,22.07,25.37,17.73\O,23.24,14.67,
 18.56\H,23.64,14.02,19.14\H,22.32,14.42,18.51\O,19.42,16.91,13.53\H,19
 .1,16.05,13.8\H,19.33,17.46,14.3\O,24.79,25.3,19.33\H,25.58,24.76,19.2
 9\H,24.18,24.79,19.87\O,25.6,20.,24.18\H,25.62,19.73,23.26\H,24.75,20.
 42,24.29\O,13.76,17.34,17.77\H,14.34,18.03,17.44\H,14.15,17.09,18.61\O
 ,18.65,13.34,21.82\H,18.46,12.4,21.71\H,18.65,13.68,20.92\O,22.99,25.3
 7,23.36\H,23.7,25.92,23.66\H,23.32,24.47,23.45\O,13.19,21.39,22.02\H,1
 3.59,20.71,21.48\H,12.46,20.96,22.46\O,17.54,26.82,19.5\H,17.86,26.48,
 20.33\H,17.72,26.13,18.86\O,17.46,16.07,25.9\H,17.75,15.28,25.44\H,17.
 38,16.73,25.21\O,20.11,25.86,23.24\H,21.03,25.7,23.46\H,20.08,26.78,22
 .99\O,23.01,20.89,25.92\H,23.03,21.24,26.81\H,23.15,19.95,26.03\O,17.2
 4,24.93,15.24\H,16.61,24.46,14.7\H,18.01,24.36,15.27\O,21.69,15.27,24.
 8\H,22.6,15.22,25.08\H,21.32,15.99,25.31\O,24.42,19.9,13.74\H,23.63,20
 .11,14.24\H,24.1,19.47,12.95\O,14.47,22.66,24.74\H,14.75,23.27,25.42\H
 ,15.19,22.66,24.11\O,25.31,23.66,16.13\H,25.45,23.46,17.05\H,24.41,23.
 37,15.96\O,26.68,17.24,20.81\H,26.35,17.3,19.92\H,25.97,16.84,21.31\O,
 26.07,15.56,18.58\H,25.21,15.81,18.24\H,26.51,15.14,17.84\O,27.35,19.9
 3,20.93\H,26.82,19.13,20.88\H,27.88,19.92,20.13\O,20.64,13.38,16.69\H,
 20.73,13.47,17.64\H,21.,12.51,16.5\O,21.4,12.55,19.15\H,21.39,13.13,19
 .92\H,20.67,11.94,19.3\O,14.69,23.11,16.37\H,14.69,22.95,15.42\H,14.24
 ,22.36,16.74\O,20.25,27.77,18.64\H,20.36,26.97,19.16\H,21.14,28.13,18.
 56\O,26.39,23.19,19.22\H,26.82,22.85,20.01\H,26.98,22.95,18.51\O,22.03
 ,15.44,14.78\H,21.55,16.03,14.21\H,21.51,14.64,14.79\O,17.05,18.72,12.
 89\H,17.15,18.07,13.6\H,16.79,18.2,12.13\O,18.14,25.17,25.04\H,18.31,2
 5.38,25.96\H,18.88,25.56,24.57\O,19.03,20.74,12.8\H,19.72,20.38,12.23\
 H,18.28,20.17,12.67\O,15.09,20.32,26.39\H,15.33,19.68,25.71\H,14.72,21
 .06,25.91\O,18.08,13.91,24.51\H,18.43,13.76,23.63\H,18.15,13.05,24.94\
 O,16.6,26.18,23.1\H,15.87,26.55,23.6\H,17.21,25.85,23.76\O,26.42,23.01
 ,24.61\H,25.69,22.87,24.\H,26.,23.05,25.47\O,23.2,23.26,14.01\H,22.49,
 23.45,13.4\H,23.94,23.,13.46\O,21.96,24.59,26.42\H,21.55,23.73,26.38\H
 ,22.55,24.62,25.67\O,17.38,18.56,27.35\H,17.36,17.68,26.99\H,16.78,19.
 06,26.79\O,23.82,12.58,21.33\H,23.06,13.16,21.25\H,24.53,13.03,20.88\O
 ,13.84,18.02,24.22\H,13.12,17.76,24.79\H,13.62,17.62,23.37\O,27.55,17.
 6,16.99\H,27.37,17.4,16.07\H,26.71,17.47,17.43\O,20.95,26.8,15.02\H,20
 .29,26.3,14.54\H,21.03,26.35,15.86\O,21.54,17.09,26.92\H,21.13,17.51,2
 7.68\H,22.4,17.52,26.85\O,15.09,14.43,24.15\H,14.87,14.88,24.96\H,16.0
 3,14.58,24.03\O,19.51,22.33,28.42\H,19.33,22.39,27.48\H,19.58,21.4,28.
 59\O,24.71,15.55,24.64\H,24.87,15.49,25.58\H,25.39,16.14,24.32\O,12.71
 ,23.93,21.75\H,12.11,23.76,21.03\H,12.97,23.06,22.06\O,17.01,14.6,14.1
 6\H,16.57,14.1,14.84\H,16.64,15.48,14.24\O,24.38,16.8,12.83\H,23.8,17.
 36,13.34\H,23.79,16.15,12.43\O,21.79,12.2,23.26\H,22.46,12.25,22.58\H,
 21.85,13.03,23.73\O,15.76,22.97,13.73\H,15.96,23.43,12.91\H,15.49,22.1
 ,13.45\O,12.46,24.5,18.44\H,12.28,25.19,17.8\H,13.17,23.99,18.05\O,13.
 45,15.69,22.25\H,13.87,15.08,22.85\H,13.18,15.16,21.5\O,27.8,22.95,21.
 61\H,28.3,23.74,21.78\H,27.31,22.8,22.42\O,14.81,20.62,13.26\H,15.35,1
 9.83,13.25\H,14.01,20.37,12.79\O,19.06,28.03,21.54\H,18.3,28.5,21.88\H
 ,19.15,28.34,20.64\O,24.1,18.54,27.\H,24.94,18.53,26.54\H,24.33,18.46,
 27.92\O,27.78,22.48,17.26\H,27.79,21.55,17.49\H,27.86,22.49,16.3\O,19.
 33,13.35,14.05\H,19.51,13.36,14.99\H,18.45,13.72,13.97\O,11.17,18.28,1
 8.2\H,12.1,18.12,18.06\H,10.98,17.86,19.04\O,27.24,18.5,25.62\H,26.58,
 18.85,25.03\H,27.63,17.77,25.15\O,27.05,20.65,14.3\H,27.31,19.74,14.16
 \H,26.09,20.63,14.28\O,25.24,14.39,15.89\H,24.84,13.59,16.23\H,24.58,1
 4.77,15.31\O,21.29,20.12,28.29\H,21.55,20.62,29.06\H,21.22,19.22,28.59
 \O,25.36,27.57,20.92\H,24.95,26.83,20.47\H,24.9,27.62,21.76\O,21.08,24
 .1,12.31\H,20.28,24.41,12.74\H,21.73,24.77,12.51\O,28.46,19.99,17.74\H
 ,28.17,19.1,17.58\H,29.4,19.97,17.55\O,19.34,15.63,28.37\H,19.39,16.47
 ,28.83\H,19.02,15.85,27.5\O,25.77,13.03,19.55\H,26.03,13.88,19.18\H,26
 .48,12.81,20.15\O,15.18,27.82,18.95\H,14.89,28.68,19.27\H,16.05,27.7,1
 9.34\O,10.85,20.83,17.28\H,11.65,20.88,17.8\H,10.65,19.9,17.24\O,17.96
 ,29.1,18.13\H,18.89,28.92,17.97\H,17.62,28.28,18.5\O,27.37,16.48,23.37
 \H,27.96,15.78,23.09\H,27.75,17.28,23.02\O,14.51,13.05,18.98\H,14.84,1
 3.19,18.1\H,14.6,12.11,19.14\O,13.87,26.14,16.64\H,14.54,25.66,16.15\H
 ,14.29,26.96,16.88\O,19.04,25.56,13.07\H,19.06,26.32,12.49\H,18.22,25.
 66,13.55\O,11.16,17.01,20.83\H,11.98,16.64,21.14\H,10.66,17.19,21.63\O
 ,26.58,16.46,14.8\H,26.18,16.59,13.94\H,26.06,15.78,15.21\O,28.86,20.2
 4,23.3\H,28.65,21.13,23.6\H,28.53,20.2,22.4\O,15.75,12.91,16.67\H,16.4
 8,12.33,16.9\H,15.37,12.51,15.89\O,27.23,23.3,14.25\H,26.44,23.3,14.79
 \H,27.29,22.42,13.9\O,20.53,18.87,11.16\H,21.29,18.73,10.6\H,20.02,18.
 06,11.08\O,23.91,28.36,16.54\H,24.61,28.07,17.12\H,23.36,27.58,16.42\O
 ,19.44,10.92,19.98\H,18.53,11.06,20.22\H,19.5,9.98,19.78\O,12.29,15.77
 ,15.23\H,11.72,16.33,14.71\H,12.84,16.39,15.73\O,18.1,11.61,17.07\H,18
 .06,11.19,16.21\H,18.96,11.35,17.41\\Version=ES64L-G09RevE.01\HF=-9773
 .4778171\RMSD=2.251e-09\RMSF=1.054e-02\Dipole=-5.7320024,-14.9273528,-
 2.9320056\Quadrupole=2.1957155,-525.4566944,523.2609789,-2242.087798,-
 1672.4811594,-1982.7946122\PG=C01 [X(Br1H256O128)]\\@


 FROM WHENCE IT HAPPENS, THAT THEY WHICH TRUST TO BOOKS, DO AS THEY THAT CAST UP MANY LITTLE SUMMS INTO GREATER,
 WITHOUT CONSIDERING WETHER THOSE LITTLE SUMMES WERE RIGHTLY CAST UP OR NOT...
 AND AT LAST FINDING THE ERROUR VISIBLE, AND NOT MISTRUSTING THEIR FIRST GROUNDS,
 KNOW NOT WHICH WAY TO CLEERE THEMSELVES...
 BUT SPEND TIME IN FLUTTERING OVER THEIR BOOKES....
 AS BIRDS THAT ENTERING BY THE CHIMNEY, AND FINDING THEMSELVES INCLOSED IN A CHAMBER,
 FLUTTER AT THE FALSE LIGHT OF A GLASSE WINDOW,
 FOR WANT OF WIT TO CONSIDER WHICH WAY THEY CAME IN....
           LEVIATHAN
 Job cpu time:       7 days  2 hours 16 minutes 17.7 seconds.
 File lengths (MBytes):  RWF=   7285 Int=      0 D2E=      0 Chk=   2411 Scr=      1
 Normal termination of Gaussian 09 at Fri May  4 22:51:38 2018.
