 Entering Gaussian System, Link 0=/cm/shared/gaussian/g09.e01/intel64-sandybridge/g09/g09
 Initial command:
 /cm/shared/gaussian/g09.e01/intel64-sandybridge/g09/l1.exe "/local/scratch/m.peluso/128_wat/370/Gau-23651.inp" -scrdir="/local/scratch/m.peluso/128_wat/370/"
 Entering Link 1 = /cm/shared/gaussian/g09.e01/intel64-sandybridge/g09/l1.exe PID=     23652.
  
 Copyright (c) 1988,1990,1992,1993,1995,1998,2003,2009,2015,
            Gaussian, Inc.  All Rights Reserved.
  
 This is part of the Gaussian(R) 09 program.  It is based on
 the Gaussian(R) 03 system (copyright 2003, Gaussian, Inc.),
 the Gaussian(R) 98 system (copyright 1998, Gaussian, Inc.),
 the Gaussian(R) 94 system (copyright 1995, Gaussian, Inc.),
 the Gaussian 92(TM) system (copyright 1992, Gaussian, Inc.),
 the Gaussian 90(TM) system (copyright 1990, Gaussian, Inc.),
 the Gaussian 88(TM) system (copyright 1988, Gaussian, Inc.),
 the Gaussian 86(TM) system (copyright 1986, Carnegie Mellon
 University), and the Gaussian 82(TM) system (copyright 1983,
 Carnegie Mellon University). Gaussian is a federally registered
 trademark of Gaussian, Inc.
  
 This software contains proprietary and confidential information,
 including trade secrets, belonging to Gaussian, Inc.
  
 This software is provided under written license and may be
 used, copied, transmitted, or stored only in accord with that
 written license.
  
 The following legend is applicable only to US Government
 contracts under FAR:
  
                    RESTRICTED RIGHTS LEGEND
  
 Use, reproduction and disclosure by the US Government is
 subject to restrictions as set forth in subparagraphs (a)
 and (c) of the Commercial Computer Software - Restricted
 Rights clause in FAR 52.227-19.
  
 Gaussian, Inc.
 340 Quinnipiac St., Bldg. 40, Wallingford CT 06492
  
  
 ---------------------------------------------------------------
 Warning -- This program may not be used in any manner that
 competes with the business of Gaussian, Inc. or will provide
 assistance to any competitor of Gaussian, Inc.  The licensee
 of this program is prohibited from giving any competitor of
 Gaussian, Inc. access to this program.  By using this program,
 the user acknowledges that Gaussian, Inc. is engaged in the
 business of creating and licensing software in the field of
 computational chemistry and represents and warrants to the
 licensee that it is not a competitor of Gaussian, Inc. and that
 it will not use this program in any manner prohibited above.
 ---------------------------------------------------------------
  

 Cite this work as:
 Gaussian 09, Revision E.01,
 M. J. Frisch, G. W. Trucks, H. B. Schlegel, G. E. Scuseria, 
 M. A. Robb, J. R. Cheeseman, G. Scalmani, V. Barone, B. Mennucci, 
 G. A. Petersson, H. Nakatsuji, M. Caricato, X. Li, H. P. Hratchian, 
 A. F. Izmaylov, J. Bloino, G. Zheng, J. L. Sonnenberg, M. Hada, 
 M. Ehara, K. Toyota, R. Fukuda, J. Hasegawa, M. Ishida, T. Nakajima, 
 Y. Honda, O. Kitao, H. Nakai, T. Vreven, J. A. Montgomery, Jr., 
 J. E. Peralta, F. Ogliaro, M. Bearpark, J. J. Heyd, E. Brothers, 
 K. N. Kudin, V. N. Staroverov, T. Keith, R. Kobayashi, J. Normand, 
 K. Raghavachari, A. Rendell, J. C. Burant, S. S. Iyengar, J. Tomasi, 
 M. Cossi, N. Rega, J. M. Millam, M. Klene, J. E. Knox, J. B. Cross, 
 V. Bakken, C. Adamo, J. Jaramillo, R. Gomperts, R. E. Stratmann, 
 O. Yazyev, A. J. Austin, R. Cammi, C. Pomelli, J. W. Ochterski, 
 R. L. Martin, K. Morokuma, V. G. Zakrzewski, G. A. Voth, 
 P. Salvador, J. J. Dannenberg, S. Dapprich, A. D. Daniels, 
 O. Farkas, J. B. Foresman, J. V. Ortiz, J. Cioslowski, 
 and D. J. Fox, Gaussian, Inc., Wallingford CT, 2013.
 
 ******************************************
 Gaussian 09:  ES64L-G09RevE.01 30-Nov-2015
                 8-May-2018 
 ******************************************
 %Mem=110GB
 %NProcShared=64
 Will use up to   64 processors via shared memory.
 %chk=snap53.chk
 ----------------------------------------------
 #p PBE1PBE/cc-pvDZ force Counterpoise=2 noSymm
 ----------------------------------------------
 1/10=7,30=1,38=1,62=2/1,3;
 2/12=2,15=1,17=6,18=5,40=1/2;
 1/10=7,30=1,38=1,53=2,62=2,63=101/22;
 3/5=16,11=2,16=1,25=1,30=1,71=1,74=-13/1,2,3;
 4//1;
 5/5=2,38=5/2;
 6/7=2,8=2,9=2,10=2,28=1/1;
 7/7=1,29=1,30=1,33=-1/1,2,3,16;
 1/10=7,30=1,53=2,62=2,63=101/22;
 3/5=7,6=11,11=2,16=1,25=1,30=1,71=1,74=-13,82=7/1,2,3;
 4//1;
 5/5=2,38=5/2;
 6/7=2,8=2,9=2,10=2,28=1/1;
 7/7=1,29=1,30=1,33=-1/1,2,3,16;
 1/10=7,30=1,53=2,62=2,63=101/22(-5);
 7/9=1,29=1,44=-1/16;
 1/10=7,30=1,62=2/3;
 99//99;
 Leave Link    1 at Tue May  8 12:19:03 2018, MaxMem= 14763950080 cpu:       162.2
 (Enter /cm/shared/gaussian/g09.e01/intel64-sandybridge/g09/l101.exe)
 ---------------------------------------
 forces on chloride comput - NWATER: 128
 ---------------------------------------
 Symbolic Z-matrix:
 Charge = -1 Multiplicity = 1 in supermolecule
 Charge = -1 Multiplicity = 1 in fragment      1.
 Charge =  0 Multiplicity = 1 in fragment      2.
 Br(Fragment=1)        20.       20.       20. 
 O(Fragment=2)         18.24     18.       21.73 
 H(Fragment=2)         18.29     18.65     22.43 
 H(Fragment=2)         18.79     18.36     21.03 
 O(Fragment=2)         21.62     18.56     22.45 
 H(Fragment=2)         22.36     18.25     21.93 
 H(Fragment=2)         20.97     18.82     21.79 
 O(Fragment=2)         19.33     19.67     16.67 
 H(Fragment=2)         19.35     20.01     17.56 
 H(Fragment=2)         18.56     19.1      16.65 
 O(Fragment=2)         17.12     21.93     19.94 
 H(Fragment=2)         17.51     22.8      19.92 
 H(Fragment=2)         17.84     21.34     19.74 
 O(Fragment=2)         18.7      20.85     22.98 
 H(Fragment=2)         18.85     21.09     22.07 
 H(Fragment=2)         19.2      21.5      23.49 
 O(Fragment=2)         18.96     16.78     18.93 
 H(Fragment=2)         18.98     17.73     18.85 
 H(Fragment=2)         18.03     16.56     18.81 
 O(Fragment=2)         23.47     18.86     19.72 
 H(Fragment=2)         22.77     19.52     19.73 
 H(Fragment=2)         23.16     18.2      19.1 
 O(Fragment=2)         21.02     22.87     18.75 
 H(Fragment=2)         20.7      23.62     18.25 
 H(Fragment=2)         20.37     22.75     19.44 
 O(Fragment=2)         21.77     17.32     18.16 
 H(Fragment=2)         21.13     18.01     18.29 
 H(Fragment=2)         21.47     16.6      18.71 
 O(Fragment=2)         21.72     21.58     23.12 
 H(Fragment=2)         21.83     22.08     22.31 
 H(Fragment=2)         22.16     20.75     22.95 
 O(Fragment=2)         23.01     21.33     17.22 
 H(Fragment=2)         23.11     21.74     16.36 
 H(Fragment=2)         22.1      21.49     17.45 
 O(Fragment=2)         19.21     22.52     15.75 
 H(Fragment=2)         18.75     21.97     15.11 
 H(Fragment=2)         19.61     21.89     16.36 
 O(Fragment=2)         21.85     23.85     21.37 
 H(Fragment=2)         22.16     24.75     21.48 
 H(Fragment=2)         21.8      23.72     20.42 
 O(Fragment=2)         15.19     18.87     21.31 
 H(Fragment=2)         14.89     19.66     20.87 
 H(Fragment=2)         16.13     18.85     21.15 
 O(Fragment=2)         18.8      15.61     22.95 
 H(Fragment=2)         17.91     15.36     23.18 
 H(Fragment=2)         18.71     16.41     22.44 
 O(Fragment=2)         21.38     19.23     14.89 
 H(Fragment=2)         20.66     19.35     15.51 
 H(Fragment=2)         22.16     19.48     15.38 
 O(Fragment=2)         25.2      19.15     21.69 
 H(Fragment=2)         25.49     19.98     21.29 
 H(Fragment=2)         24.38     18.94     21.25 
 O(Fragment=2)         19.66     23.48     23.45 
 H(Fragment=2)         19.76     24.08     22.71 
 H(Fragment=2)         20.51     23.05     23.53 
 O(Fragment=2)         17.21     18.13     16.67 
 H(Fragment=2)         16.31     18.31     16.38 
 H(Fragment=2)         17.22     17.19     16.84 
 O(Fragment=2)         25.12     21.6      20.34 
 H(Fragment=2)         25.44     22.26     20.96 
 H(Fragment=2)         24.36     22.       19.92 
 O(Fragment=2)         20.37     14.64     20.86 
 H(Fragment=2)         19.74     14.75     21.57 
 H(Fragment=2)         19.96     15.07     20.11 
 O(Fragment=2)         17.36     18.94     24.5 
 H(Fragment=2)         16.46     18.94     24.17 
 H(Fragment=2)         17.66     19.84     24.36 
 O(Fragment=2)         14.45     20.68     19.6 
 H(Fragment=2)         15.22     21.23     19.43 
 H(Fragment=2)         14.25     20.29     18.75 
 O(Fragment=2)         16.32     22.64     23.92 
 H(Fragment=2)         16.78     22.28     23.16 
 H(Fragment=2)         16.28     23.58     23.75 
 O(Fragment=2)         23.87     15.94     22.03 
 H(Fragment=2)         23.65     15.01     21.94 
 H(Fragment=2)         23.28     16.38     21.41 
 O(Fragment=2)         18.24     24.67     18.5 
 H(Fragment=2)         18.9      24.83     17.83 
 H(Fragment=2)         18.36     25.36     19.15 
 O(Fragment=2)         24.15     18.28     16.1 
 H(Fragment=2)         24.05     18.67     16.97 
 H(Fragment=2)         23.96     17.36     16.22 
 O(Fragment=2)         21.65     19.28     25.73 
 H(Fragment=2)         21.63     18.88     24.86 
 H(Fragment=2)         21.71     18.53     26.33 
 O(Fragment=2)         22.5      15.96     16.01 
 H(Fragment=2)         22.14     15.1      16.2 
 H(Fragment=2)         22.19     16.52     16.72 
 O(Fragment=2)         23.43     24.83     18.86 
 H(Fragment=2)         23.4      24.01     18.38 
 H(Fragment=2)         24.21     24.76     19.42 
 O(Fragment=2)         15.51     23.95     18.06 
 H(Fragment=2)         16.38     23.96     18.47 
 H(Fragment=2)         14.91     24.21     18.76 
 O(Fragment=2)         20.23     24.83     16.74 
 H(Fragment=2)         20.05     24.08     16.17 
 H(Fragment=2)         21.       25.24     16.37 
 O(Fragment=2)         23.49     23.36     24.3 
 H(Fragment=2)         22.95     22.62     24.02 
 H(Fragment=2)         23.84     23.09     25.15 
 O(Fragment=2)         14.9      18.86     23.9 
 H(Fragment=2)         15.12     18.93     22.98 
 H(Fragment=2)         14.51     17.99     24. 
 O(Fragment=2)         25.91     21.43     17.54 
 H(Fragment=2)         24.97     21.47     17.35 
 H(Fragment=2)         25.97     21.6      18.48 
 O(Fragment=2)         18.6      15.72     15.44 
 H(Fragment=2)         19.28     16.39     15.42 
 H(Fragment=2)         18.77     15.18     14.67 
 O(Fragment=2)         16.54     15.47     18.28 
 H(Fragment=2)         16.71     14.52     18.28 
 H(Fragment=2)         15.59     15.54     18.26 
 O(Fragment=2)         18.27     25.58     21.36 
 H(Fragment=2)         18.96     26.02     21.85 
 H(Fragment=2)         17.54     25.5      21.97 
 O(Fragment=2)         22.63     14.39     19.14 
 H(Fragment=2)         21.89     14.31     19.74 
 H(Fragment=2)         23.3      13.82     19.51 
 O(Fragment=2)         25.08     16.08     17.68 
 H(Fragment=2)         24.44     16.09     18.38 
 H(Fragment=2)         25.11     15.17     17.38 
 O(Fragment=2)         15.03     16.12     21.2 
 H(Fragment=2)         14.7      16.98     21.45 
 H(Fragment=2)         15.33     15.73     22.01 
 O(Fragment=2)         14.25     16.88     18.54 
 H(Fragment=2)         14.59     16.82     19.43 
 H(Fragment=2)         13.37     16.5      18.59 
 O(Fragment=2)         23.35     16.71     24.86 
 H(Fragment=2)         23.34     16.4      23.96 
 H(Fragment=2)         24.18     16.38     25.22 
 O(Fragment=2)         24.91     18.93     24.38 
 H(Fragment=2)         24.27     18.22     24.31 
 H(Fragment=2)         25.38     18.9      23.55 
 O(Fragment=2)         21.08     23.26     26.37 
 H(Fragment=2)         20.36     23.89     26.31 
 H(Fragment=2)         20.76     22.5      25.89 
 O(Fragment=2)         20.96     16.43     13.77 
 H(Fragment=2)         21.06     17.3      14.16 
 H(Fragment=2)         21.57     15.88     14.27 
 O(Fragment=2)         18.14     24.47     25.73 
 H(Fragment=2)         18.95     24.97     25.82 
 H(Fragment=2)         18.31     23.87     25. 
 O(Fragment=2)         15.98     23.77     15.4 
 H(Fragment=2)         16.5      22.97     15.3 
 H(Fragment=2)         15.78     23.8      16.34 
 O(Fragment=2)         23.98     20.74     26.09 
 H(Fragment=2)         23.16     20.35     25.79 
 H(Fragment=2)         24.66     20.23     25.63 
 O(Fragment=2)         23.23     22.97     15.05 
 H(Fragment=2)         23.11     22.92     14.11 
 H(Fragment=2)         23.28     23.91     15.23 
 O(Fragment=2)         19.08     19.19     27.09 
 H(Fragment=2)         19.79     19.69     26.69 
 H(Fragment=2)         18.79     18.6      26.39 
 O(Fragment=2)         16.9      16.9      26.2 
 H(Fragment=2)         16.52     17.44     26.9 
 H(Fragment=2)         16.92     17.48     25.44 
 O(Fragment=2)         20.78     14.18     24.98 
 H(Fragment=2)         20.08     14.18     25.62 
 H(Fragment=2)         20.62     14.95     24.44 
 O(Fragment=2)         25.77     23.79     21.74 
 H(Fragment=2)         25.09     23.98     22.38 
 H(Fragment=2)         25.94     24.63     21.31 
 O(Fragment=2)         17.23     17.68     13.31 
 H(Fragment=2)         17.03     17.63     14.24 
 H(Fragment=2)         17.56     16.8      13.09 
 O(Fragment=2)         19.04     13.46     16.83 
 H(Fragment=2)         19.76     12.98     16.43 
 H(Fragment=2)         18.92     14.22     16.27 
 O(Fragment=2)         14.77     17.61     15.62 
 H(Fragment=2)         13.98     17.84     15.13 
 H(Fragment=2)         14.46     17.49     16.52 
 O(Fragment=2)         26.92     17.26     22.59 
 H(Fragment=2)         27.28     16.7      21.9 
 H(Fragment=2)         26.44     17.94     22.13 
 O(Fragment=2)         23.16     25.76     16.13 
 H(Fragment=2)         23.09     25.77     17.08 
 H(Fragment=2)         23.52     26.62     15.91 
 O(Fragment=2)         16.05     21.58     26.46 
 H(Fragment=2)         15.38     20.92     26.26 
 H(Fragment=2)         16.1      22.12     25.67 
 O(Fragment=2)         13.5      22.9      23.71 
 H(Fragment=2)         13.37     23.68     24.25 
 H(Fragment=2)         14.45     22.81     23.63 
 O(Fragment=2)         22.05     13.31     16.62 
 H(Fragment=2)         22.28     13.64     17.49 
 H(Fragment=2)         22.88     13.02     16.24 
 O(Fragment=2)         24.67     19.67     13.68 
 H(Fragment=2)         24.38     18.99     13.07 
 H(Fragment=2)         24.66     19.24     14.54 
 O(Fragment=2)         22.89     25.95     24.46 
 H(Fragment=2)         22.87     25.97     25.42 
 H(Fragment=2)         23.02     25.03     24.25 
 O(Fragment=2)         12.05     22.03     20.24 
 H(Fragment=2)         12.93     21.74     20. 
 H(Fragment=2)         11.96     22.88     19.81 
 O(Fragment=2)         21.7      16.99     27.03 
 H(Fragment=2)         22.07     16.73     26.18 
 H(Fragment=2)         21.4      16.17     27.42 
 O(Fragment=2)         11.96     18.7      19.73 
 H(Fragment=2)         12.78     18.62     20.23 
 H(Fragment=2)         12.14     19.38     19.08 
 O(Fragment=2)         19.97     26.74     22.98 
 H(Fragment=2)         19.53     27.39     23.52 
 H(Fragment=2)         20.84     26.65     23.37 
 O(Fragment=2)         13.27     20.28     16.97 
 H(Fragment=2)         13.05     19.79     16.18 
 H(Fragment=2)         13.11     21.19     16.75 
 O(Fragment=2)         16.63     27.56     19.36 
 H(Fragment=2)         17.04     26.81     19.79 
 H(Fragment=2)         17.06     28.32     19.76 
 O(Fragment=2)         15.82     15.02     23.67 
 H(Fragment=2)         14.87     14.99     23.81 
 H(Fragment=2)         16.18     14.51     24.39 
 O(Fragment=2)         20.88     18.75     11.91 
 H(Fragment=2)         21.04     17.95     12.42 
 H(Fragment=2)         20.56     19.38     12.55 
 O(Fragment=2)         16.02     25.37     23.55 
 H(Fragment=2)         16.29     25.6      24.43 
 H(Fragment=2)         15.18     25.82     23.42 
 O(Fragment=2)         27.11     17.87     16.61 
 H(Fragment=2)         26.94     18.34     17.42 
 H(Fragment=2)         26.4      17.24     16.54 
 O(Fragment=2)         17.39     22.08     13.15 
 H(Fragment=2)         17.83     21.49     12.53 
 H(Fragment=2)         16.8      22.6      12.61 
 O(Fragment=2)         18.02     12.41     20.21 
 H(Fragment=2)         17.19     12.87     20.19 
 H(Fragment=2)         18.26     12.28     19.29 
 O(Fragment=2)         15.47     13.26     21.1 
 H(Fragment=2)         15.14     14.15     20.98 
 H(Fragment=2)         15.72     13.21     22.02 
 O(Fragment=2)         17.75     25.24     13.7 
 H(Fragment=2)         17.55     24.54     14.32 
 H(Fragment=2)         18.29     24.83     13.03 
 O(Fragment=2)         23.27     13.29     21.93 
 H(Fragment=2)         22.66     12.91     22.56 
 H(Fragment=2)         23.32     12.64     21.23 
 O(Fragment=2)         20.57     11.53     18.93 
 H(Fragment=2)         19.7      11.41     19.31 
 H(Fragment=2)         20.87     12.37     19.29 
 O(Fragment=2)         16.55     12.72     17.77 
 H(Fragment=2)         17.42     13.04     17.51 
 H(Fragment=2)         16.23     12.27     16.99 
 O(Fragment=2)         12.93     23.15     17.12 
 H(Fragment=2)         13.73     23.65     16.97 
 H(Fragment=2)         12.38     23.73     17.65 
 O(Fragment=2)         15.46     15.23     14.25 
 H(Fragment=2)         14.9      15.53     13.54 
 H(Fragment=2)         15.67     16.03     14.74 
 O(Fragment=2)         28.55     22.16     20.36 
 H(Fragment=2)         27.66     21.95     20.08 
 H(Fragment=2)         28.9      22.72     19.67 
 O(Fragment=2)         18.7      14.89     26.69 
 H(Fragment=2)         18.87     15.26     27.56 
 H(Fragment=2)         18.08     15.5      26.29 
 O(Fragment=2)         22.02     27.91     19.79 
 H(Fragment=2)         22.93     27.92     19.47 
 H(Fragment=2)         21.49     27.81     19. 
 O(Fragment=2)         27.75     22.41     23.47 
 H(Fragment=2)         27.88     22.53     22.53 
 H(Fragment=2)         26.8      22.36     23.58 
 O(Fragment=2)         20.37     27.97     17.67 
 H(Fragment=2)         20.52     28.8      17.22 
 H(Fragment=2)         19.71     27.53     17.15 
 O(Fragment=2)         27.41     21.42     15.19 
 H(Fragment=2)         26.9      21.2      15.98 
 H(Fragment=2)         27.65     20.58     14.82 
 O(Fragment=2)         17.84     27.61     16.64 
 H(Fragment=2)         17.08     27.17     16.24 
 H(Fragment=2)         17.79     27.38     17.57 
 O(Fragment=2)         25.94     25.55     19.61 
 H(Fragment=2)         25.59     26.38     19.28 
 H(Fragment=2)         26.71     25.39     19.07 
 O(Fragment=2)         18.68     11.68     22.83 
 H(Fragment=2)         18.68     12.16     22. 
 H(Fragment=2)         17.87     11.94     23.26 
 O(Fragment=2)         24.84     26.17     22.62 
 H(Fragment=2)         25.58     26.6      23.04 
 H(Fragment=2)         24.1      26.35     23.2 
 O(Fragment=2)         11.83     20.82     23.08 
 H(Fragment=2)         11.36     21.39     22.47 
 H(Fragment=2)         12.56     21.35     23.39 
 O(Fragment=2)         25.86     22.57     26.26 
 H(Fragment=2)         25.19     21.9      26.19 
 H(Fragment=2)         26.28     22.4      27.11 
 O(Fragment=2)         27.49     15.99     19.57 
 H(Fragment=2)         27.13     15.81     18.7 
 H(Fragment=2)         27.64     15.12     19.95 
 O(Fragment=2)         17.44     20.95     28.55 
 H(Fragment=2)         18.21     20.51     28.18 
 H(Fragment=2)         16.82     21.02     27.82 
 O(Fragment=2)         13.28     16.64     23.81 
 H(Fragment=2)         13.54     16.64     24.73 
 H(Fragment=2)         12.8      15.82     23.7 
 O(Fragment=2)         26.6      13.56     21.78 
 H(Fragment=2)         25.75     14.       21.8 
 H(Fragment=2)         27.1      13.96     22.48 
 O(Fragment=2)         12.61     24.99     21.81 
 H(Fragment=2)         12.81     24.91     20.88 
 H(Fragment=2)         12.9      24.16     22.2 
 O(Fragment=2)         13.68     20.04     26.35 
 H(Fragment=2)         13.06     20.76     26.27 
 H(Fragment=2)         13.53     19.51     25.57 
 O(Fragment=2)         26.28     24.89     16.69 
 H(Fragment=2)         27.       24.37     17.06 
 H(Fragment=2)         26.03     25.48     17.4 
 O(Fragment=2)         14.09     24.35     13.95 
 H(Fragment=2)         14.81     23.95     14.45 
 H(Fragment=2)         14.43     24.43     13.06 
 O(Fragment=2)         13.8      25.91     19.36 
 H(Fragment=2)         13.76     26.43     18.56 
 H(Fragment=2)         13.59     26.54     20.06 
 O(Fragment=2)         22.23     25.18     12.42 
 H(Fragment=2)         23.1      25.48     12.18 
 H(Fragment=2)         22.29     24.96     13.35 
 O(Fragment=2)         15.11     19.04     12.22 
 H(Fragment=2)         14.91     19.45     13.07 
 H(Fragment=2)         15.74     18.36     12.43 
 O(Fragment=2)         27.34     17.99     25.71 
 H(Fragment=2)         27.76     18.77     25.33 
 H(Fragment=2)         26.55     17.87     25.19 
 O(Fragment=2)         15.62     26.74     15.32 
 H(Fragment=2)         15.52     25.78     15.34 
 H(Fragment=2)         15.72     26.95     14.39 
 O(Fragment=2)         19.9      26.16     26.19 
 H(Fragment=2)         20.53     26.59     26.77 
 H(Fragment=2)         19.56     26.87     25.64 
 O(Fragment=2)         25.65     23.88     13.76 
 H(Fragment=2)         26.08     23.03     13.67 
 H(Fragment=2)         25.7      24.08     14.7 
 O(Fragment=2)         18.03     15.12     12.93 
 H(Fragment=2)         17.11     14.86     12.92 
 H(Fragment=2)         18.5      14.29     12.98 
 O(Fragment=2)         16.48     23.78     28.15 
 H(Fragment=2)         16.61     22.87     28.38 
 H(Fragment=2)         16.94     23.88     27.31 
 O(Fragment=2)         21.3      11.36     23.8 
 H(Fragment=2)         20.66     10.84     23.3 
 H(Fragment=2)         20.84     12.17     24. 
 O(Fragment=2)         12.09     15.45     19.25 
 H(Fragment=2)         11.38     16.08     19.31 
 H(Fragment=2)         12.42     15.36     20.14 
 O(Fragment=2)         22.67     18.91     29.22 
 H(Fragment=2)         22.46     18.43     28.42 
 H(Fragment=2)         23.61     19.07     29.17 
 O(Fragment=2)         18.58     29.58     19.64 
 H(Fragment=2)         19.16     28.86     19.43 
 H(Fragment=2)         19.05     30.36     19.34 
 O(Fragment=2)         17.85     17.58     29.14 
 H(Fragment=2)         18.1      17.89     30.01 
 H(Fragment=2)         18.13     18.28     28.55 
 O(Fragment=2)         21.1      29.34     21.59 
 H(Fragment=2)         20.48     28.8      22.09 
 H(Fragment=2)         21.56     28.73     21.03 
 O(Fragment=2)         21.63     21.85     29.54 
 H(Fragment=2)         22.35     21.34     29.89 
 H(Fragment=2)         21.74     21.81     28.59 
 O(Fragment=2)         25.1      25.08     26.11 
 H(Fragment=2)         25.29     24.16     25.91 
 H(Fragment=2)         25.48     25.57     25.38 
 O(Fragment=2)         25.15     12.66     19.7 
 H(Fragment=2)         25.72     13.02     20.39 
 H(Fragment=2)         25.51     11.79     19.53 
 O(Fragment=2)         19.53     27.38     13.87 
 H(Fragment=2)         19.02     26.57     13.88 
 H(Fragment=2)         19.19     27.88     14.61 
 O(Fragment=2)         25.37     13.48     16.7 
 H(Fragment=2)         26.22     13.23     17.07 
 H(Fragment=2)         25.58     13.73     15.8 
 O(Fragment=2)         28.37     20.12     24.56 
 H(Fragment=2)         29.14     20.03     24. 
 H(Fragment=2)         28.       20.97     24.32 
 O(Fragment=2)         12.51     18.9      14.77 
 H(Fragment=2)         12.13     19.21     13.95 
 H(Fragment=2)         11.84     18.32     15.14 
 O(Fragment=2)         22.49     12.65     26.47 
 H(Fragment=2)         23.35     13.06     26.35 
 H(Fragment=2)         21.86     13.32     26.2 
 O(Fragment=2)         11.3      18.43     24.64 
 H(Fragment=2)         11.22     19.16     24.03 
 H(Fragment=2)         11.98     17.87     24.25 
 O(Fragment=2)         22.09     14.85     11.71 
 H(Fragment=2)         22.49     14.96     10.85 
 H(Fragment=2)         21.71     15.71     11.9 
 
 NAtoms=    385 NQM=      385 NQMF=       0 NMMI=      0 NMMIF=      0
                NMic=       0 NMicF=      0.
                    Isotopes and Nuclear Properties:
 (Nuclear quadrupole moments (NQMom) in fm**2, nuclear magnetic moments (NMagM)
  in nuclear magnetons)

  Atom         1           2           3           4           5           6           7           8           9          10
 IAtWgt=          79          16           1           1          16           1           1          16           1           1
 AtmWgt=  78.9183361  15.9949146   1.0078250   1.0078250  15.9949146   1.0078250   1.0078250  15.9949146   1.0078250   1.0078250
 NucSpn=           3           0           1           1           0           1           1           0           1           1
 AtZEff=   0.0000000   0.0000000   0.0000000   0.0000000   0.0000000   0.0000000   0.0000000   0.0000000   0.0000000   0.0000000
 NQMom=   31.3000000   0.0000000   0.0000000   0.0000000   0.0000000   0.0000000   0.0000000   0.0000000   0.0000000   0.0000000
 NMagM=    2.1063990   0.0000000   2.7928460   2.7928460   0.0000000   2.7928460   2.7928460   0.0000000   2.7928460   2.7928460
 AtZNuc=  35.0000000   8.0000000   1.0000000   1.0000000   8.0000000   1.0000000   1.0000000   8.0000000   1.0000000   1.0000000

  Atom        11          12          13          14          15          16          17          18          19          20
 IAtWgt=          16           1           1          16           1           1          16           1           1          16
 AtmWgt=  15.9949146   1.0078250   1.0078250  15.9949146   1.0078250   1.0078250  15.9949146   1.0078250   1.0078250  15.9949146
 NucSpn=           0           1           1           0           1           1           0           1           1           0
 AtZEff=   0.0000000   0.0000000   0.0000000   0.0000000   0.0000000   0.0000000   0.0000000   0.0000000   0.0000000   0.0000000
 NQMom=    0.0000000   0.0000000   0.0000000   0.0000000   0.0000000   0.0000000   0.0000000   0.0000000   0.0000000   0.0000000
 NMagM=    0.0000000   2.7928460   2.7928460   0.0000000   2.7928460   2.7928460   0.0000000   2.7928460   2.7928460   0.0000000
 AtZNuc=   8.0000000   1.0000000   1.0000000   8.0000000   1.0000000   1.0000000   8.0000000   1.0000000   1.0000000   8.0000000

  Atom        21          22          23          24          25          26          27          28          29          30
 IAtWgt=           1           1          16           1           1          16           1           1          16           1
 AtmWgt=   1.0078250   1.0078250  15.9949146   1.0078250   1.0078250  15.9949146   1.0078250   1.0078250  15.9949146   1.0078250
 NucSpn=           1           1           0           1           1           0           1           1           0           1
 AtZEff=   0.0000000   0.0000000   0.0000000   0.0000000   0.0000000   0.0000000   0.0000000   0.0000000   0.0000000   0.0000000
 NQMom=    0.0000000   0.0000000   0.0000000   0.0000000   0.0000000   0.0000000   0.0000000   0.0000000   0.0000000   0.0000000
 NMagM=    2.7928460   2.7928460   0.0000000   2.7928460   2.7928460   0.0000000   2.7928460   2.7928460   0.0000000   2.7928460
 AtZNuc=   1.0000000   1.0000000   8.0000000   1.0000000   1.0000000   8.0000000   1.0000000   1.0000000   8.0000000   1.0000000

  Atom        31          32          33          34          35          36          37          38          39          40
 IAtWgt=           1          16           1           1          16           1           1          16           1           1
 AtmWgt=   1.0078250  15.9949146   1.0078250   1.0078250  15.9949146   1.0078250   1.0078250  15.9949146   1.0078250   1.0078250
 NucSpn=           1           0           1           1           0           1           1           0           1           1
 AtZEff=   0.0000000   0.0000000   0.0000000   0.0000000   0.0000000   0.0000000   0.0000000   0.0000000   0.0000000   0.0000000
 NQMom=    0.0000000   0.0000000   0.0000000   0.0000000   0.0000000   0.0000000   0.0000000   0.0000000   0.0000000   0.0000000
 NMagM=    2.7928460   0.0000000   2.7928460   2.7928460   0.0000000   2.7928460   2.7928460   0.0000000   2.7928460   2.7928460
 AtZNuc=   1.0000000   8.0000000   1.0000000   1.0000000   8.0000000   1.0000000   1.0000000   8.0000000   1.0000000   1.0000000

  Atom        41          42          43          44          45          46          47          48          49          50
 IAtWgt=          16           1           1          16           1           1          16           1           1          16
 AtmWgt=  15.9949146   1.0078250   1.0078250  15.9949146   1.0078250   1.0078250  15.9949146   1.0078250   1.0078250  15.9949146
 NucSpn=           0           1           1           0           1           1           0           1           1           0
 AtZEff=   0.0000000   0.0000000   0.0000000   0.0000000   0.0000000   0.0000000   0.0000000   0.0000000   0.0000000   0.0000000
 NQMom=    0.0000000   0.0000000   0.0000000   0.0000000   0.0000000   0.0000000   0.0000000   0.0000000   0.0000000   0.0000000
 NMagM=    0.0000000   2.7928460   2.7928460   0.0000000   2.7928460   2.7928460   0.0000000   2.7928460   2.7928460   0.0000000
 AtZNuc=   8.0000000   1.0000000   1.0000000   8.0000000   1.0000000   1.0000000   8.0000000   1.0000000   1.0000000   8.0000000

  Atom        51          52          53          54          55          56          57          58          59          60
 IAtWgt=           1           1          16           1           1          16           1           1          16           1
 AtmWgt=   1.0078250   1.0078250  15.9949146   1.0078250   1.0078250  15.9949146   1.0078250   1.0078250  15.9949146   1.0078250
 NucSpn=           1           1           0           1           1           0           1           1           0           1
 AtZEff=   0.0000000   0.0000000   0.0000000   0.0000000   0.0000000   0.0000000   0.0000000   0.0000000   0.0000000   0.0000000
 NQMom=    0.0000000   0.0000000   0.0000000   0.0000000   0.0000000   0.0000000   0.0000000   0.0000000   0.0000000   0.0000000
 NMagM=    2.7928460   2.7928460   0.0000000   2.7928460   2.7928460   0.0000000   2.7928460   2.7928460   0.0000000   2.7928460
 AtZNuc=   1.0000000   1.0000000   8.0000000   1.0000000   1.0000000   8.0000000   1.0000000   1.0000000   8.0000000   1.0000000

  Atom        61          62          63          64          65          66          67          68          69          70
 IAtWgt=           1          16           1           1          16           1           1          16           1           1
 AtmWgt=   1.0078250  15.9949146   1.0078250   1.0078250  15.9949146   1.0078250   1.0078250  15.9949146   1.0078250   1.0078250
 NucSpn=           1           0           1           1           0           1           1           0           1           1
 AtZEff=   0.0000000   0.0000000   0.0000000   0.0000000   0.0000000   0.0000000   0.0000000   0.0000000   0.0000000   0.0000000
 NQMom=    0.0000000   0.0000000   0.0000000   0.0000000   0.0000000   0.0000000   0.0000000   0.0000000   0.0000000   0.0000000
 NMagM=    2.7928460   0.0000000   2.7928460   2.7928460   0.0000000   2.7928460   2.7928460   0.0000000   2.7928460   2.7928460
 AtZNuc=   1.0000000   8.0000000   1.0000000   1.0000000   8.0000000   1.0000000   1.0000000   8.0000000   1.0000000   1.0000000

  Atom        71          72          73          74          75          76          77          78          79          80
 IAtWgt=          16           1           1          16           1           1          16           1           1          16
 AtmWgt=  15.9949146   1.0078250   1.0078250  15.9949146   1.0078250   1.0078250  15.9949146   1.0078250   1.0078250  15.9949146
 NucSpn=           0           1           1           0           1           1           0           1           1           0
 AtZEff=   0.0000000   0.0000000   0.0000000   0.0000000   0.0000000   0.0000000   0.0000000   0.0000000   0.0000000   0.0000000
 NQMom=    0.0000000   0.0000000   0.0000000   0.0000000   0.0000000   0.0000000   0.0000000   0.0000000   0.0000000   0.0000000
 NMagM=    0.0000000   2.7928460   2.7928460   0.0000000   2.7928460   2.7928460   0.0000000   2.7928460   2.7928460   0.0000000
 AtZNuc=   8.0000000   1.0000000   1.0000000   8.0000000   1.0000000   1.0000000   8.0000000   1.0000000   1.0000000   8.0000000

  Atom        81          82          83          84          85          86          87          88          89          90
 IAtWgt=           1           1          16           1           1          16           1           1          16           1
 AtmWgt=   1.0078250   1.0078250  15.9949146   1.0078250   1.0078250  15.9949146   1.0078250   1.0078250  15.9949146   1.0078250
 NucSpn=           1           1           0           1           1           0           1           1           0           1
 AtZEff=   0.0000000   0.0000000   0.0000000   0.0000000   0.0000000   0.0000000   0.0000000   0.0000000   0.0000000   0.0000000
 NQMom=    0.0000000   0.0000000   0.0000000   0.0000000   0.0000000   0.0000000   0.0000000   0.0000000   0.0000000   0.0000000
 NMagM=    2.7928460   2.7928460   0.0000000   2.7928460   2.7928460   0.0000000   2.7928460   2.7928460   0.0000000   2.7928460
 AtZNuc=   1.0000000   1.0000000   8.0000000   1.0000000   1.0000000   8.0000000   1.0000000   1.0000000   8.0000000   1.0000000

  Atom        91          92          93          94          95          96          97          98          99         100
 IAtWgt=           1          16           1           1          16           1           1          16           1           1
 AtmWgt=   1.0078250  15.9949146   1.0078250   1.0078250  15.9949146   1.0078250   1.0078250  15.9949146   1.0078250   1.0078250
 NucSpn=           1           0           1           1           0           1           1           0           1           1
 AtZEff=   0.0000000   0.0000000   0.0000000   0.0000000   0.0000000   0.0000000   0.0000000   0.0000000   0.0000000   0.0000000
 NQMom=    0.0000000   0.0000000   0.0000000   0.0000000   0.0000000   0.0000000   0.0000000   0.0000000   0.0000000   0.0000000
 NMagM=    2.7928460   0.0000000   2.7928460   2.7928460   0.0000000   2.7928460   2.7928460   0.0000000   2.7928460   2.7928460
 AtZNuc=   1.0000000   8.0000000   1.0000000   1.0000000   8.0000000   1.0000000   1.0000000   8.0000000   1.0000000   1.0000000

  Atom       101         102         103         104         105         106         107         108         109         110
 IAtWgt=          16           1           1          16           1           1          16           1           1          16
 AtmWgt=  15.9949146   1.0078250   1.0078250  15.9949146   1.0078250   1.0078250  15.9949146   1.0078250   1.0078250  15.9949146
 NucSpn=           0           1           1           0           1           1           0           1           1           0
 AtZEff=   0.0000000   0.0000000   0.0000000   0.0000000   0.0000000   0.0000000   0.0000000   0.0000000   0.0000000   0.0000000
 NQMom=    0.0000000   0.0000000   0.0000000   0.0000000   0.0000000   0.0000000   0.0000000   0.0000000   0.0000000   0.0000000
 NMagM=    0.0000000   2.7928460   2.7928460   0.0000000   2.7928460   2.7928460   0.0000000   2.7928460   2.7928460   0.0000000
 AtZNuc=   8.0000000   1.0000000   1.0000000   8.0000000   1.0000000   1.0000000   8.0000000   1.0000000   1.0000000   8.0000000

  Atom       111         112         113         114         115         116         117         118         119         120
 IAtWgt=           1           1          16           1           1          16           1           1          16           1
 AtmWgt=   1.0078250   1.0078250  15.9949146   1.0078250   1.0078250  15.9949146   1.0078250   1.0078250  15.9949146   1.0078250
 NucSpn=           1           1           0           1           1           0           1           1           0           1
 AtZEff=   0.0000000   0.0000000   0.0000000   0.0000000   0.0000000   0.0000000   0.0000000   0.0000000   0.0000000   0.0000000
 NQMom=    0.0000000   0.0000000   0.0000000   0.0000000   0.0000000   0.0000000   0.0000000   0.0000000   0.0000000   0.0000000
 NMagM=    2.7928460   2.7928460   0.0000000   2.7928460   2.7928460   0.0000000   2.7928460   2.7928460   0.0000000   2.7928460
 AtZNuc=   1.0000000   1.0000000   8.0000000   1.0000000   1.0000000   8.0000000   1.0000000   1.0000000   8.0000000   1.0000000

  Atom       121         122         123         124         125         126         127         128         129         130
 IAtWgt=           1          16           1           1          16           1           1          16           1           1
 AtmWgt=   1.0078250  15.9949146   1.0078250   1.0078250  15.9949146   1.0078250   1.0078250  15.9949146   1.0078250   1.0078250
 NucSpn=           1           0           1           1           0           1           1           0           1           1
 AtZEff=   0.0000000   0.0000000   0.0000000   0.0000000   0.0000000   0.0000000   0.0000000   0.0000000   0.0000000   0.0000000
 NQMom=    0.0000000   0.0000000   0.0000000   0.0000000   0.0000000   0.0000000   0.0000000   0.0000000   0.0000000   0.0000000
 NMagM=    2.7928460   0.0000000   2.7928460   2.7928460   0.0000000   2.7928460   2.7928460   0.0000000   2.7928460   2.7928460
 AtZNuc=   1.0000000   8.0000000   1.0000000   1.0000000   8.0000000   1.0000000   1.0000000   8.0000000   1.0000000   1.0000000

  Atom       131         132         133         134         135         136         137         138         139         140
 IAtWgt=          16           1           1          16           1           1          16           1           1          16
 AtmWgt=  15.9949146   1.0078250   1.0078250  15.9949146   1.0078250   1.0078250  15.9949146   1.0078250   1.0078250  15.9949146
 NucSpn=           0           1           1           0           1           1           0           1           1           0
 AtZEff=   0.0000000   0.0000000   0.0000000   0.0000000   0.0000000   0.0000000   0.0000000   0.0000000   0.0000000   0.0000000
 NQMom=    0.0000000   0.0000000   0.0000000   0.0000000   0.0000000   0.0000000   0.0000000   0.0000000   0.0000000   0.0000000
 NMagM=    0.0000000   2.7928460   2.7928460   0.0000000   2.7928460   2.7928460   0.0000000   2.7928460   2.7928460   0.0000000
 AtZNuc=   8.0000000   1.0000000   1.0000000   8.0000000   1.0000000   1.0000000   8.0000000   1.0000000   1.0000000   8.0000000

  Atom       141         142         143         144         145         146         147         148         149         150
 IAtWgt=           1           1          16           1           1          16           1           1          16           1
 AtmWgt=   1.0078250   1.0078250  15.9949146   1.0078250   1.0078250  15.9949146   1.0078250   1.0078250  15.9949146   1.0078250
 NucSpn=           1           1           0           1           1           0           1           1           0           1
 AtZEff=   0.0000000   0.0000000   0.0000000   0.0000000   0.0000000   0.0000000   0.0000000   0.0000000   0.0000000   0.0000000
 NQMom=    0.0000000   0.0000000   0.0000000   0.0000000   0.0000000   0.0000000   0.0000000   0.0000000   0.0000000   0.0000000
 NMagM=    2.7928460   2.7928460   0.0000000   2.7928460   2.7928460   0.0000000   2.7928460   2.7928460   0.0000000   2.7928460
 AtZNuc=   1.0000000   1.0000000   8.0000000   1.0000000   1.0000000   8.0000000   1.0000000   1.0000000   8.0000000   1.0000000

  Atom       151         152         153         154         155         156         157         158         159         160
 IAtWgt=           1          16           1           1          16           1           1          16           1           1
 AtmWgt=   1.0078250  15.9949146   1.0078250   1.0078250  15.9949146   1.0078250   1.0078250  15.9949146   1.0078250   1.0078250
 NucSpn=           1           0           1           1           0           1           1           0           1           1
 AtZEff=   0.0000000   0.0000000   0.0000000   0.0000000   0.0000000   0.0000000   0.0000000   0.0000000   0.0000000   0.0000000
 NQMom=    0.0000000   0.0000000   0.0000000   0.0000000   0.0000000   0.0000000   0.0000000   0.0000000   0.0000000   0.0000000
 NMagM=    2.7928460   0.0000000   2.7928460   2.7928460   0.0000000   2.7928460   2.7928460   0.0000000   2.7928460   2.7928460
 AtZNuc=   1.0000000   8.0000000   1.0000000   1.0000000   8.0000000   1.0000000   1.0000000   8.0000000   1.0000000   1.0000000

  Atom       161         162         163         164         165         166         167         168         169         170
 IAtWgt=          16           1           1          16           1           1          16           1           1          16
 AtmWgt=  15.9949146   1.0078250   1.0078250  15.9949146   1.0078250   1.0078250  15.9949146   1.0078250   1.0078250  15.9949146
 NucSpn=           0           1           1           0           1           1           0           1           1           0
 AtZEff=   0.0000000   0.0000000   0.0000000   0.0000000   0.0000000   0.0000000   0.0000000   0.0000000   0.0000000   0.0000000
 NQMom=    0.0000000   0.0000000   0.0000000   0.0000000   0.0000000   0.0000000   0.0000000   0.0000000   0.0000000   0.0000000
 NMagM=    0.0000000   2.7928460   2.7928460   0.0000000   2.7928460   2.7928460   0.0000000   2.7928460   2.7928460   0.0000000
 AtZNuc=   8.0000000   1.0000000   1.0000000   8.0000000   1.0000000   1.0000000   8.0000000   1.0000000   1.0000000   8.0000000

  Atom       171         172         173         174         175         176         177         178         179         180
 IAtWgt=           1           1          16           1           1          16           1           1          16           1
 AtmWgt=   1.0078250   1.0078250  15.9949146   1.0078250   1.0078250  15.9949146   1.0078250   1.0078250  15.9949146   1.0078250
 NucSpn=           1           1           0           1           1           0           1           1           0           1
 AtZEff=   0.0000000   0.0000000   0.0000000   0.0000000   0.0000000   0.0000000   0.0000000   0.0000000   0.0000000   0.0000000
 NQMom=    0.0000000   0.0000000   0.0000000   0.0000000   0.0000000   0.0000000   0.0000000   0.0000000   0.0000000   0.0000000
 NMagM=    2.7928460   2.7928460   0.0000000   2.7928460   2.7928460   0.0000000   2.7928460   2.7928460   0.0000000   2.7928460
 AtZNuc=   1.0000000   1.0000000   8.0000000   1.0000000   1.0000000   8.0000000   1.0000000   1.0000000   8.0000000   1.0000000

  Atom       181         182         183         184         185         186         187         188         189         190
 IAtWgt=           1          16           1           1          16           1           1          16           1           1
 AtmWgt=   1.0078250  15.9949146   1.0078250   1.0078250  15.9949146   1.0078250   1.0078250  15.9949146   1.0078250   1.0078250
 NucSpn=           1           0           1           1           0           1           1           0           1           1
 AtZEff=   0.0000000   0.0000000   0.0000000   0.0000000   0.0000000   0.0000000   0.0000000   0.0000000   0.0000000   0.0000000
 NQMom=    0.0000000   0.0000000   0.0000000   0.0000000   0.0000000   0.0000000   0.0000000   0.0000000   0.0000000   0.0000000
 NMagM=    2.7928460   0.0000000   2.7928460   2.7928460   0.0000000   2.7928460   2.7928460   0.0000000   2.7928460   2.7928460
 AtZNuc=   1.0000000   8.0000000   1.0000000   1.0000000   8.0000000   1.0000000   1.0000000   8.0000000   1.0000000   1.0000000

  Atom       191         192         193         194         195         196         197         198         199         200
 IAtWgt=          16           1           1          16           1           1          16           1           1          16
 AtmWgt=  15.9949146   1.0078250   1.0078250  15.9949146   1.0078250   1.0078250  15.9949146   1.0078250   1.0078250  15.9949146
 NucSpn=           0           1           1           0           1           1           0           1           1           0
 AtZEff=   0.0000000   0.0000000   0.0000000   0.0000000   0.0000000   0.0000000   0.0000000   0.0000000   0.0000000   0.0000000
 NQMom=    0.0000000   0.0000000   0.0000000   0.0000000   0.0000000   0.0000000   0.0000000   0.0000000   0.0000000   0.0000000
 NMagM=    0.0000000   2.7928460   2.7928460   0.0000000   2.7928460   2.7928460   0.0000000   2.7928460   2.7928460   0.0000000
 AtZNuc=   8.0000000   1.0000000   1.0000000   8.0000000   1.0000000   1.0000000   8.0000000   1.0000000   1.0000000   8.0000000

  Atom       201         202         203         204         205         206         207         208         209         210
 IAtWgt=           1           1          16           1           1          16           1           1          16           1
 AtmWgt=   1.0078250   1.0078250  15.9949146   1.0078250   1.0078250  15.9949146   1.0078250   1.0078250  15.9949146   1.0078250
 NucSpn=           1           1           0           1           1           0           1           1           0           1
 AtZEff=   0.0000000   0.0000000   0.0000000   0.0000000   0.0000000   0.0000000   0.0000000   0.0000000   0.0000000   0.0000000
 NQMom=    0.0000000   0.0000000   0.0000000   0.0000000   0.0000000   0.0000000   0.0000000   0.0000000   0.0000000   0.0000000
 NMagM=    2.7928460   2.7928460   0.0000000   2.7928460   2.7928460   0.0000000   2.7928460   2.7928460   0.0000000   2.7928460
 AtZNuc=   1.0000000   1.0000000   8.0000000   1.0000000   1.0000000   8.0000000   1.0000000   1.0000000   8.0000000   1.0000000

  Atom       211         212         213         214         215         216         217         218         219         220
 IAtWgt=           1          16           1           1          16           1           1          16           1           1
 AtmWgt=   1.0078250  15.9949146   1.0078250   1.0078250  15.9949146   1.0078250   1.0078250  15.9949146   1.0078250   1.0078250
 NucSpn=           1           0           1           1           0           1           1           0           1           1
 AtZEff=   0.0000000   0.0000000   0.0000000   0.0000000   0.0000000   0.0000000   0.0000000   0.0000000   0.0000000   0.0000000
 NQMom=    0.0000000   0.0000000   0.0000000   0.0000000   0.0000000   0.0000000   0.0000000   0.0000000   0.0000000   0.0000000
 NMagM=    2.7928460   0.0000000   2.7928460   2.7928460   0.0000000   2.7928460   2.7928460   0.0000000   2.7928460   2.7928460
 AtZNuc=   1.0000000   8.0000000   1.0000000   1.0000000   8.0000000   1.0000000   1.0000000   8.0000000   1.0000000   1.0000000

  Atom       221         222         223         224         225         226         227         228         229         230
 IAtWgt=          16           1           1          16           1           1          16           1           1          16
 AtmWgt=  15.9949146   1.0078250   1.0078250  15.9949146   1.0078250   1.0078250  15.9949146   1.0078250   1.0078250  15.9949146
 NucSpn=           0           1           1           0           1           1           0           1           1           0
 AtZEff=   0.0000000   0.0000000   0.0000000   0.0000000   0.0000000   0.0000000   0.0000000   0.0000000   0.0000000   0.0000000
 NQMom=    0.0000000   0.0000000   0.0000000   0.0000000   0.0000000   0.0000000   0.0000000   0.0000000   0.0000000   0.0000000
 NMagM=    0.0000000   2.7928460   2.7928460   0.0000000   2.7928460   2.7928460   0.0000000   2.7928460   2.7928460   0.0000000
 AtZNuc=   8.0000000   1.0000000   1.0000000   8.0000000   1.0000000   1.0000000   8.0000000   1.0000000   1.0000000   8.0000000

  Atom       231         232         233         234         235         236         237         238         239         240
 IAtWgt=           1           1          16           1           1          16           1           1          16           1
 AtmWgt=   1.0078250   1.0078250  15.9949146   1.0078250   1.0078250  15.9949146   1.0078250   1.0078250  15.9949146   1.0078250
 NucSpn=           1           1           0           1           1           0           1           1           0           1
 AtZEff=   0.0000000   0.0000000   0.0000000   0.0000000   0.0000000   0.0000000   0.0000000   0.0000000   0.0000000   0.0000000
 NQMom=    0.0000000   0.0000000   0.0000000   0.0000000   0.0000000   0.0000000   0.0000000   0.0000000   0.0000000   0.0000000
 NMagM=    2.7928460   2.7928460   0.0000000   2.7928460   2.7928460   0.0000000   2.7928460   2.7928460   0.0000000   2.7928460
 AtZNuc=   1.0000000   1.0000000   8.0000000   1.0000000   1.0000000   8.0000000   1.0000000   1.0000000   8.0000000   1.0000000

  Atom       241         242         243         244         245         246         247         248         249         250
 IAtWgt=           1          16           1           1          16           1           1          16           1           1
 AtmWgt=   1.0078250  15.9949146   1.0078250   1.0078250  15.9949146   1.0078250   1.0078250  15.9949146   1.0078250   1.0078250
 NucSpn=           1           0           1           1           0           1           1           0           1           1
 AtZEff=   0.0000000   0.0000000   0.0000000   0.0000000   0.0000000   0.0000000   0.0000000   0.0000000   0.0000000   0.0000000
 NQMom=    0.0000000   0.0000000   0.0000000   0.0000000   0.0000000   0.0000000   0.0000000   0.0000000   0.0000000   0.0000000
 NMagM=    2.7928460   0.0000000   2.7928460   2.7928460   0.0000000   2.7928460   2.7928460   0.0000000   2.7928460   2.7928460
 AtZNuc=   1.0000000   8.0000000   1.0000000   1.0000000   8.0000000   1.0000000   1.0000000   8.0000000   1.0000000   1.0000000

  Atom       251         252         253         254         255         256         257         258         259         260
 IAtWgt=          16           1           1          16           1           1          16           1           1          16
 AtmWgt=  15.9949146   1.0078250   1.0078250  15.9949146   1.0078250   1.0078250  15.9949146   1.0078250   1.0078250  15.9949146
 NucSpn=           0           1           1           0           1           1           0           1           1           0
 AtZEff=   0.0000000   0.0000000   0.0000000   0.0000000   0.0000000   0.0000000   0.0000000   0.0000000   0.0000000   0.0000000
 NQMom=    0.0000000   0.0000000   0.0000000   0.0000000   0.0000000   0.0000000   0.0000000   0.0000000   0.0000000   0.0000000
 NMagM=    0.0000000   2.7928460   2.7928460   0.0000000   2.7928460   2.7928460   0.0000000   2.7928460   2.7928460   0.0000000
 AtZNuc=   8.0000000   1.0000000   1.0000000   8.0000000   1.0000000   1.0000000   8.0000000   1.0000000   1.0000000   8.0000000

  Atom       261         262         263         264         265         266         267         268         269         270
 IAtWgt=           1           1          16           1           1          16           1           1          16           1
 AtmWgt=   1.0078250   1.0078250  15.9949146   1.0078250   1.0078250  15.9949146   1.0078250   1.0078250  15.9949146   1.0078250
 NucSpn=           1           1           0           1           1           0           1           1           0           1
 AtZEff=   0.0000000   0.0000000   0.0000000   0.0000000   0.0000000   0.0000000   0.0000000   0.0000000   0.0000000   0.0000000
 NQMom=    0.0000000   0.0000000   0.0000000   0.0000000   0.0000000   0.0000000   0.0000000   0.0000000   0.0000000   0.0000000
 NMagM=    2.7928460   2.7928460   0.0000000   2.7928460   2.7928460   0.0000000   2.7928460   2.7928460   0.0000000   2.7928460
 AtZNuc=   1.0000000   1.0000000   8.0000000   1.0000000   1.0000000   8.0000000   1.0000000   1.0000000   8.0000000   1.0000000

  Atom       271         272         273         274         275         276         277         278         279         280
 IAtWgt=           1          16           1           1          16           1           1          16           1           1
 AtmWgt=   1.0078250  15.9949146   1.0078250   1.0078250  15.9949146   1.0078250   1.0078250  15.9949146   1.0078250   1.0078250
 NucSpn=           1           0           1           1           0           1           1           0           1           1
 AtZEff=   0.0000000   0.0000000   0.0000000   0.0000000   0.0000000   0.0000000   0.0000000   0.0000000   0.0000000   0.0000000
 NQMom=    0.0000000   0.0000000   0.0000000   0.0000000   0.0000000   0.0000000   0.0000000   0.0000000   0.0000000   0.0000000
 NMagM=    2.7928460   0.0000000   2.7928460   2.7928460   0.0000000   2.7928460   2.7928460   0.0000000   2.7928460   2.7928460
 AtZNuc=   1.0000000   8.0000000   1.0000000   1.0000000   8.0000000   1.0000000   1.0000000   8.0000000   1.0000000   1.0000000

  Atom       281         282         283         284         285         286         287         288         289         290
 IAtWgt=          16           1           1          16           1           1          16           1           1          16
 AtmWgt=  15.9949146   1.0078250   1.0078250  15.9949146   1.0078250   1.0078250  15.9949146   1.0078250   1.0078250  15.9949146
 NucSpn=           0           1           1           0           1           1           0           1           1           0
 AtZEff=   0.0000000   0.0000000   0.0000000   0.0000000   0.0000000   0.0000000   0.0000000   0.0000000   0.0000000   0.0000000
 NQMom=    0.0000000   0.0000000   0.0000000   0.0000000   0.0000000   0.0000000   0.0000000   0.0000000   0.0000000   0.0000000
 NMagM=    0.0000000   2.7928460   2.7928460   0.0000000   2.7928460   2.7928460   0.0000000   2.7928460   2.7928460   0.0000000
 AtZNuc=   8.0000000   1.0000000   1.0000000   8.0000000   1.0000000   1.0000000   8.0000000   1.0000000   1.0000000   8.0000000

  Atom       291         292         293         294         295         296         297         298         299         300
 IAtWgt=           1           1          16           1           1          16           1           1          16           1
 AtmWgt=   1.0078250   1.0078250  15.9949146   1.0078250   1.0078250  15.9949146   1.0078250   1.0078250  15.9949146   1.0078250
 NucSpn=           1           1           0           1           1           0           1           1           0           1
 AtZEff=   0.0000000   0.0000000   0.0000000   0.0000000   0.0000000   0.0000000   0.0000000   0.0000000   0.0000000   0.0000000
 NQMom=    0.0000000   0.0000000   0.0000000   0.0000000   0.0000000   0.0000000   0.0000000   0.0000000   0.0000000   0.0000000
 NMagM=    2.7928460   2.7928460   0.0000000   2.7928460   2.7928460   0.0000000   2.7928460   2.7928460   0.0000000   2.7928460
 AtZNuc=   1.0000000   1.0000000   8.0000000   1.0000000   1.0000000   8.0000000   1.0000000   1.0000000   8.0000000   1.0000000

  Atom       301         302         303         304         305         306         307         308         309         310
 IAtWgt=           1          16           1           1          16           1           1          16           1           1
 AtmWgt=   1.0078250  15.9949146   1.0078250   1.0078250  15.9949146   1.0078250   1.0078250  15.9949146   1.0078250   1.0078250
 NucSpn=           1           0           1           1           0           1           1           0           1           1
 AtZEff=   0.0000000   0.0000000   0.0000000   0.0000000   0.0000000   0.0000000   0.0000000   0.0000000   0.0000000   0.0000000
 NQMom=    0.0000000   0.0000000   0.0000000   0.0000000   0.0000000   0.0000000   0.0000000   0.0000000   0.0000000   0.0000000
 NMagM=    2.7928460   0.0000000   2.7928460   2.7928460   0.0000000   2.7928460   2.7928460   0.0000000   2.7928460   2.7928460
 AtZNuc=   1.0000000   8.0000000   1.0000000   1.0000000   8.0000000   1.0000000   1.0000000   8.0000000   1.0000000   1.0000000

  Atom       311         312         313         314         315         316         317         318         319         320
 IAtWgt=          16           1           1          16           1           1          16           1           1          16
 AtmWgt=  15.9949146   1.0078250   1.0078250  15.9949146   1.0078250   1.0078250  15.9949146   1.0078250   1.0078250  15.9949146
 NucSpn=           0           1           1           0           1           1           0           1           1           0
 AtZEff=   0.0000000   0.0000000   0.0000000   0.0000000   0.0000000   0.0000000   0.0000000   0.0000000   0.0000000   0.0000000
 NQMom=    0.0000000   0.0000000   0.0000000   0.0000000   0.0000000   0.0000000   0.0000000   0.0000000   0.0000000   0.0000000
 NMagM=    0.0000000   2.7928460   2.7928460   0.0000000   2.7928460   2.7928460   0.0000000   2.7928460   2.7928460   0.0000000
 AtZNuc=   8.0000000   1.0000000   1.0000000   8.0000000   1.0000000   1.0000000   8.0000000   1.0000000   1.0000000   8.0000000

  Atom       321         322         323         324         325         326         327         328         329         330
 IAtWgt=           1           1          16           1           1          16           1           1          16           1
 AtmWgt=   1.0078250   1.0078250  15.9949146   1.0078250   1.0078250  15.9949146   1.0078250   1.0078250  15.9949146   1.0078250
 NucSpn=           1           1           0           1           1           0           1           1           0           1
 AtZEff=   0.0000000   0.0000000   0.0000000   0.0000000   0.0000000   0.0000000   0.0000000   0.0000000   0.0000000   0.0000000
 NQMom=    0.0000000   0.0000000   0.0000000   0.0000000   0.0000000   0.0000000   0.0000000   0.0000000   0.0000000   0.0000000
 NMagM=    2.7928460   2.7928460   0.0000000   2.7928460   2.7928460   0.0000000   2.7928460   2.7928460   0.0000000   2.7928460
 AtZNuc=   1.0000000   1.0000000   8.0000000   1.0000000   1.0000000   8.0000000   1.0000000   1.0000000   8.0000000   1.0000000

  Atom       331         332         333         334         335         336         337         338         339         340
 IAtWgt=           1          16           1           1          16           1           1          16           1           1
 AtmWgt=   1.0078250  15.9949146   1.0078250   1.0078250  15.9949146   1.0078250   1.0078250  15.9949146   1.0078250   1.0078250
 NucSpn=           1           0           1           1           0           1           1           0           1           1
 AtZEff=   0.0000000   0.0000000   0.0000000   0.0000000   0.0000000   0.0000000   0.0000000   0.0000000   0.0000000   0.0000000
 NQMom=    0.0000000   0.0000000   0.0000000   0.0000000   0.0000000   0.0000000   0.0000000   0.0000000   0.0000000   0.0000000
 NMagM=    2.7928460   0.0000000   2.7928460   2.7928460   0.0000000   2.7928460   2.7928460   0.0000000   2.7928460   2.7928460
 AtZNuc=   1.0000000   8.0000000   1.0000000   1.0000000   8.0000000   1.0000000   1.0000000   8.0000000   1.0000000   1.0000000

  Atom       341         342         343         344         345         346         347         348         349         350
 IAtWgt=          16           1           1          16           1           1          16           1           1          16
 AtmWgt=  15.9949146   1.0078250   1.0078250  15.9949146   1.0078250   1.0078250  15.9949146   1.0078250   1.0078250  15.9949146
 NucSpn=           0           1           1           0           1           1           0           1           1           0
 AtZEff=   0.0000000   0.0000000   0.0000000   0.0000000   0.0000000   0.0000000   0.0000000   0.0000000   0.0000000   0.0000000
 NQMom=    0.0000000   0.0000000   0.0000000   0.0000000   0.0000000   0.0000000   0.0000000   0.0000000   0.0000000   0.0000000
 NMagM=    0.0000000   2.7928460   2.7928460   0.0000000   2.7928460   2.7928460   0.0000000   2.7928460   2.7928460   0.0000000
 AtZNuc=   8.0000000   1.0000000   1.0000000   8.0000000   1.0000000   1.0000000   8.0000000   1.0000000   1.0000000   8.0000000

  Atom       351         352         353         354         355         356         357         358         359         360
 IAtWgt=           1           1          16           1           1          16           1           1          16           1
 AtmWgt=   1.0078250   1.0078250  15.9949146   1.0078250   1.0078250  15.9949146   1.0078250   1.0078250  15.9949146   1.0078250
 NucSpn=           1           1           0           1           1           0           1           1           0           1
 AtZEff=   0.0000000   0.0000000   0.0000000   0.0000000   0.0000000   0.0000000   0.0000000   0.0000000   0.0000000   0.0000000
 NQMom=    0.0000000   0.0000000   0.0000000   0.0000000   0.0000000   0.0000000   0.0000000   0.0000000   0.0000000   0.0000000
 NMagM=    2.7928460   2.7928460   0.0000000   2.7928460   2.7928460   0.0000000   2.7928460   2.7928460   0.0000000   2.7928460
 AtZNuc=   1.0000000   1.0000000   8.0000000   1.0000000   1.0000000   8.0000000   1.0000000   1.0000000   8.0000000   1.0000000

  Atom       361         362         363         364         365         366         367         368         369         370
 IAtWgt=           1          16           1           1          16           1           1          16           1           1
 AtmWgt=   1.0078250  15.9949146   1.0078250   1.0078250  15.9949146   1.0078250   1.0078250  15.9949146   1.0078250   1.0078250
 NucSpn=           1           0           1           1           0           1           1           0           1           1
 AtZEff=   0.0000000   0.0000000   0.0000000   0.0000000   0.0000000   0.0000000   0.0000000   0.0000000   0.0000000   0.0000000
 NQMom=    0.0000000   0.0000000   0.0000000   0.0000000   0.0000000   0.0000000   0.0000000   0.0000000   0.0000000   0.0000000
 NMagM=    2.7928460   0.0000000   2.7928460   2.7928460   0.0000000   2.7928460   2.7928460   0.0000000   2.7928460   2.7928460
 AtZNuc=   1.0000000   8.0000000   1.0000000   1.0000000   8.0000000   1.0000000   1.0000000   8.0000000   1.0000000   1.0000000

  Atom       371         372         373         374         375         376         377         378         379         380
 IAtWgt=          16           1           1          16           1           1          16           1           1          16
 AtmWgt=  15.9949146   1.0078250   1.0078250  15.9949146   1.0078250   1.0078250  15.9949146   1.0078250   1.0078250  15.9949146
 NucSpn=           0           1           1           0           1           1           0           1           1           0
 AtZEff=   0.0000000   0.0000000   0.0000000   0.0000000   0.0000000   0.0000000   0.0000000   0.0000000   0.0000000   0.0000000
 NQMom=    0.0000000   0.0000000   0.0000000   0.0000000   0.0000000   0.0000000   0.0000000   0.0000000   0.0000000   0.0000000
 NMagM=    0.0000000   2.7928460   2.7928460   0.0000000   2.7928460   2.7928460   0.0000000   2.7928460   2.7928460   0.0000000
 AtZNuc=   8.0000000   1.0000000   1.0000000   8.0000000   1.0000000   1.0000000   8.0000000   1.0000000   1.0000000   8.0000000

  Atom       381         382         383         384         385
 IAtWgt=           1           1          16           1           1
 AtmWgt=   1.0078250   1.0078250  15.9949146   1.0078250   1.0078250
 NucSpn=           1           1           0           1           1
 AtZEff=   0.0000000   0.0000000   0.0000000   0.0000000   0.0000000
 NQMom=    0.0000000   0.0000000   0.0000000   0.0000000   0.0000000
 NMagM=    2.7928460   2.7928460   0.0000000   2.7928460   2.7928460
 AtZNuc=   1.0000000   1.0000000   8.0000000   1.0000000   1.0000000
 Leave Link  101 at Tue May  8 12:19:05 2018, MaxMem= 14763950080 cpu:       123.7
 (Enter /cm/shared/gaussian/g09.e01/intel64-sandybridge/g09/l103.exe)

 GradGradGradGradGradGradGradGradGradGradGradGradGradGradGradGradGradGrad
 Berny optimization.
 Initialization pass.
 Trust Radius=3.00D-01 FncErr=1.00D-07 GrdErr=1.00D-07
 Number of steps in this run=      2 maximum allowed number of steps=      2.
 GradGradGradGradGradGradGradGradGradGradGradGradGradGradGradGradGradGrad

 Leave Link  103 at Tue May  8 12:19:06 2018, MaxMem= 14763950080 cpu:         3.7
 (Enter /cm/shared/gaussian/g09.e01/intel64-sandybridge/g09/l202.exe)
 Symmetry turned off by external request.
 Stoichiometry    BrH256O128(1-)
 Framework group  C1[X(BrH256O128)]
 Deg. of freedom  1149
 Full point group                 C1      NOp   1
                          Input orientation:                          
 ---------------------------------------------------------------------
 Center     Atomic      Atomic             Coordinates (Angstroms)
 Number     Number       Type             X           Y           Z
 ---------------------------------------------------------------------
      1         35           0       20.000000   20.000000   20.000000
      2          8           0       18.240000   18.000000   21.730000
      3          1           0       18.290000   18.650000   22.430000
      4          1           0       18.790000   18.360000   21.030000
      5          8           0       21.620000   18.560000   22.450000
      6          1           0       22.360000   18.250000   21.930000
      7          1           0       20.970000   18.820000   21.790000
      8          8           0       19.330000   19.670000   16.670000
      9          1           0       19.350000   20.010000   17.560000
     10          1           0       18.560000   19.100000   16.650000
     11          8           0       17.120000   21.930000   19.940000
     12          1           0       17.510000   22.800000   19.920000
     13          1           0       17.840000   21.340000   19.740000
     14          8           0       18.700000   20.850000   22.980000
     15          1           0       18.850000   21.090000   22.070000
     16          1           0       19.200000   21.500000   23.490000
     17          8           0       18.960000   16.780000   18.930000
     18          1           0       18.980000   17.730000   18.850000
     19          1           0       18.030000   16.560000   18.810000
     20          8           0       23.470000   18.860000   19.720000
     21          1           0       22.770000   19.520000   19.730000
     22          1           0       23.160000   18.200000   19.100000
     23          8           0       21.020000   22.870000   18.750000
     24          1           0       20.700000   23.620000   18.250000
     25          1           0       20.370000   22.750000   19.440000
     26          8           0       21.770000   17.320000   18.160000
     27          1           0       21.130000   18.010000   18.290000
     28          1           0       21.470000   16.600000   18.710000
     29          8           0       21.720000   21.580000   23.120000
     30          1           0       21.830000   22.080000   22.310000
     31          1           0       22.160000   20.750000   22.950000
     32          8           0       23.010000   21.330000   17.220000
     33          1           0       23.110000   21.740000   16.360000
     34          1           0       22.100000   21.490000   17.450000
     35          8           0       19.210000   22.520000   15.750000
     36          1           0       18.750000   21.970000   15.110000
     37          1           0       19.610000   21.890000   16.360000
     38          8           0       21.850000   23.850000   21.370000
     39          1           0       22.160000   24.750000   21.480000
     40          1           0       21.800000   23.720000   20.420000
     41          8           0       15.190000   18.870000   21.310000
     42          1           0       14.890000   19.660000   20.870000
     43          1           0       16.130000   18.850000   21.150000
     44          8           0       18.800000   15.610000   22.950000
     45          1           0       17.910000   15.360000   23.180000
     46          1           0       18.710000   16.410000   22.440000
     47          8           0       21.380000   19.230000   14.890000
     48          1           0       20.660000   19.350000   15.510000
     49          1           0       22.160000   19.480000   15.380000
     50          8           0       25.200000   19.150000   21.690000
     51          1           0       25.490000   19.980000   21.290000
     52          1           0       24.380000   18.940000   21.250000
     53          8           0       19.660000   23.480000   23.450000
     54          1           0       19.760000   24.080000   22.710000
     55          1           0       20.510000   23.050000   23.530000
     56          8           0       17.210000   18.130000   16.670000
     57          1           0       16.310000   18.310000   16.380000
     58          1           0       17.220000   17.190000   16.840000
     59          8           0       25.120000   21.600000   20.340000
     60          1           0       25.440000   22.260000   20.960000
     61          1           0       24.360000   22.000000   19.920000
     62          8           0       20.370000   14.640000   20.860000
     63          1           0       19.740000   14.750000   21.570000
     64          1           0       19.960000   15.070000   20.110000
     65          8           0       17.360000   18.940000   24.500000
     66          1           0       16.460000   18.940000   24.170000
     67          1           0       17.660000   19.840000   24.360000
     68          8           0       14.450000   20.680000   19.600000
     69          1           0       15.220000   21.230000   19.430000
     70          1           0       14.250000   20.290000   18.750000
     71          8           0       16.320000   22.640000   23.920000
     72          1           0       16.780000   22.280000   23.160000
     73          1           0       16.280000   23.580000   23.750000
     74          8           0       23.870000   15.940000   22.030000
     75          1           0       23.650000   15.010000   21.940000
     76          1           0       23.280000   16.380000   21.410000
     77          8           0       18.240000   24.670000   18.500000
     78          1           0       18.900000   24.830000   17.830000
     79          1           0       18.360000   25.360000   19.150000
     80          8           0       24.150000   18.280000   16.100000
     81          1           0       24.050000   18.670000   16.970000
     82          1           0       23.960000   17.360000   16.220000
     83          8           0       21.650000   19.280000   25.730000
     84          1           0       21.630000   18.880000   24.860000
     85          1           0       21.710000   18.530000   26.330000
     86          8           0       22.500000   15.960000   16.010000
     87          1           0       22.140000   15.100000   16.200000
     88          1           0       22.190000   16.520000   16.720000
     89          8           0       23.430000   24.830000   18.860000
     90          1           0       23.400000   24.010000   18.380000
     91          1           0       24.210000   24.760000   19.420000
     92          8           0       15.510000   23.950000   18.060000
     93          1           0       16.380000   23.960000   18.470000
     94          1           0       14.910000   24.210000   18.760000
     95          8           0       20.230000   24.830000   16.740000
     96          1           0       20.050000   24.080000   16.170000
     97          1           0       21.000000   25.240000   16.370000
     98          8           0       23.490000   23.360000   24.300000
     99          1           0       22.950000   22.620000   24.020000
    100          1           0       23.840000   23.090000   25.150000
    101          8           0       14.900000   18.860000   23.900000
    102          1           0       15.120000   18.930000   22.980000
    103          1           0       14.510000   17.990000   24.000000
    104          8           0       25.910000   21.430000   17.540000
    105          1           0       24.970000   21.470000   17.350000
    106          1           0       25.970000   21.600000   18.480000
    107          8           0       18.600000   15.720000   15.440000
    108          1           0       19.280000   16.390000   15.420000
    109          1           0       18.770000   15.180000   14.670000
    110          8           0       16.540000   15.470000   18.280000
    111          1           0       16.710000   14.520000   18.280000
    112          1           0       15.590000   15.540000   18.260000
    113          8           0       18.270000   25.580000   21.360000
    114          1           0       18.960000   26.020000   21.850000
    115          1           0       17.540000   25.500000   21.970000
    116          8           0       22.630000   14.390000   19.140000
    117          1           0       21.890000   14.310000   19.740000
    118          1           0       23.300000   13.820000   19.510000
    119          8           0       25.080000   16.080000   17.680000
    120          1           0       24.440000   16.090000   18.380000
    121          1           0       25.110000   15.170000   17.380000
    122          8           0       15.030000   16.120000   21.200000
    123          1           0       14.700000   16.980000   21.450000
    124          1           0       15.330000   15.730000   22.010000
    125          8           0       14.250000   16.880000   18.540000
    126          1           0       14.590000   16.820000   19.430000
    127          1           0       13.370000   16.500000   18.590000
    128          8           0       23.350000   16.710000   24.860000
    129          1           0       23.340000   16.400000   23.960000
    130          1           0       24.180000   16.380000   25.220000
    131          8           0       24.910000   18.930000   24.380000
    132          1           0       24.270000   18.220000   24.310000
    133          1           0       25.380000   18.900000   23.550000
    134          8           0       21.080000   23.260000   26.370000
    135          1           0       20.360000   23.890000   26.310000
    136          1           0       20.760000   22.500000   25.890000
    137          8           0       20.960000   16.430000   13.770000
    138          1           0       21.060000   17.300000   14.160000
    139          1           0       21.570000   15.880000   14.270000
    140          8           0       18.140000   24.470000   25.730000
    141          1           0       18.950000   24.970000   25.820000
    142          1           0       18.310000   23.870000   25.000000
    143          8           0       15.980000   23.770000   15.400000
    144          1           0       16.500000   22.970000   15.300000
    145          1           0       15.780000   23.800000   16.340000
    146          8           0       23.980000   20.740000   26.090000
    147          1           0       23.160000   20.350000   25.790000
    148          1           0       24.660000   20.230000   25.630000
    149          8           0       23.230000   22.970000   15.050000
    150          1           0       23.110000   22.920000   14.110000
    151          1           0       23.280000   23.910000   15.230000
    152          8           0       19.080000   19.190000   27.090000
    153          1           0       19.790000   19.690000   26.690000
    154          1           0       18.790000   18.600000   26.390000
    155          8           0       16.900000   16.900000   26.200000
    156          1           0       16.520000   17.440000   26.900000
    157          1           0       16.920000   17.480000   25.440000
    158          8           0       20.780000   14.180000   24.980000
    159          1           0       20.080000   14.180000   25.620000
    160          1           0       20.620000   14.950000   24.440000
    161          8           0       25.770000   23.790000   21.740000
    162          1           0       25.090000   23.980000   22.380000
    163          1           0       25.940000   24.630000   21.310000
    164          8           0       17.230000   17.680000   13.310000
    165          1           0       17.030000   17.630000   14.240000
    166          1           0       17.560000   16.800000   13.090000
    167          8           0       19.040000   13.460000   16.830000
    168          1           0       19.760000   12.980000   16.430000
    169          1           0       18.920000   14.220000   16.270000
    170          8           0       14.770000   17.610000   15.620000
    171          1           0       13.980000   17.840000   15.130000
    172          1           0       14.460000   17.490000   16.520000
    173          8           0       26.920000   17.260000   22.590000
    174          1           0       27.280000   16.700000   21.900000
    175          1           0       26.440000   17.940000   22.130000
    176          8           0       23.160000   25.760000   16.130000
    177          1           0       23.090000   25.770000   17.080000
    178          1           0       23.520000   26.620000   15.910000
    179          8           0       16.050000   21.580000   26.460000
    180          1           0       15.380000   20.920000   26.260000
    181          1           0       16.100000   22.120000   25.670000
    182          8           0       13.500000   22.900000   23.710000
    183          1           0       13.370000   23.680000   24.250000
    184          1           0       14.450000   22.810000   23.630000
    185          8           0       22.050000   13.310000   16.620000
    186          1           0       22.280000   13.640000   17.490000
    187          1           0       22.880000   13.020000   16.240000
    188          8           0       24.670000   19.670000   13.680000
    189          1           0       24.380000   18.990000   13.070000
    190          1           0       24.660000   19.240000   14.540000
    191          8           0       22.890000   25.950000   24.460000
    192          1           0       22.870000   25.970000   25.420000
    193          1           0       23.020000   25.030000   24.250000
    194          8           0       12.050000   22.030000   20.240000
    195          1           0       12.930000   21.740000   20.000000
    196          1           0       11.960000   22.880000   19.810000
    197          8           0       21.700000   16.990000   27.030000
    198          1           0       22.070000   16.730000   26.180000
    199          1           0       21.400000   16.170000   27.420000
    200          8           0       11.960000   18.700000   19.730000
    201          1           0       12.780000   18.620000   20.230000
    202          1           0       12.140000   19.380000   19.080000
    203          8           0       19.970000   26.740000   22.980000
    204          1           0       19.530000   27.390000   23.520000
    205          1           0       20.840000   26.650000   23.370000
    206          8           0       13.270000   20.280000   16.970000
    207          1           0       13.050000   19.790000   16.180000
[...]
   Z335      53.19579   0.00071   0.00000   0.00139   0.00157  53.19736
   X336      31.38835   0.00901   0.00000   0.01014   0.01001  31.39836
   Y336      43.21804  -0.01989   0.00000  -0.00596  -0.00680  43.21124
   Z336      53.63043   0.00323   0.00000   0.00132   0.00147  53.63190
   X337      32.01196   0.00567   0.00000   0.00718   0.00690  32.01886
   Y337      45.12666  -0.00249   0.00000  -0.00114  -0.00190  45.12476
   Z337      51.60842  -0.00087   0.00000   0.00209   0.00226  51.61068
   X338      40.25117   0.02111   0.00000   0.01794   0.01940  40.27057
   Y338      21.46729  -0.01140   0.00000  -0.00124  -0.00128  21.46601
   Z338      44.97548  -0.00882   0.00000  -0.01296  -0.01319  44.96229
   X339      39.04174  -0.00548   0.00000  -0.00707  -0.00554  39.03620
   Y339      20.48463   0.00654   0.00000   0.01058   0.01046  20.49510
   Z339      44.03062   0.00065   0.00000   0.00219   0.00194  44.03256
   X340      39.38189  -0.01154   0.00000  -0.00803  -0.00668  39.37521
   Y340      22.99797   0.01264   0.00000   0.00458   0.00447  23.00243
   Z340      45.35343   0.00654   0.00000   0.00844   0.00824  45.36166
   X341      22.84679   0.00395   0.00000  -0.00362  -0.00277  22.84402
   Y341      29.19627  -0.01192   0.00000  -0.00682  -0.00803  29.18824
   Z341      36.37723  -0.01614   0.00000  -0.00980  -0.00984  36.36739
   X342      21.50508  -0.01148   0.00000  -0.00746  -0.00671  21.49838
   Y342      30.38680   0.01463   0.00000   0.01439   0.01308  30.39987
   Z342      36.49061   0.00534   0.00000   0.00624   0.00622  36.49684
   X343      23.47040   0.00421   0.00000   0.00273   0.00360  23.47400
   Y343      29.02619   0.00053   0.00000   0.00185   0.00066  29.02685
   Z343      38.05908   0.01207   0.00000   0.00574   0.00570  38.06478
   X344      42.84009  -0.00667   0.00000  -0.00394  -0.00351  42.83658
   Y344      35.73472   0.00719   0.00000   0.00589   0.00589  35.74061
   Z344      55.21780   0.01386   0.00000   0.00890   0.00888  55.22668
   X345      42.44325  -0.00175   0.00000  -0.00192  -0.00142  42.44183
   Y345      34.82765  -0.00813   0.00000  -0.00676  -0.00677  34.82088
   Z345      53.70602  -0.00884   0.00000  -0.00235  -0.00238  53.70364
   X346      44.61643   0.00964   0.00000   0.00667   0.00708  44.62352
   Y346      36.03708   0.00002   0.00000  -0.00083  -0.00070  36.03638
   Z346      55.12331  -0.00544   0.00000  -0.00735  -0.00738  55.11594
   X347      35.11111  -0.01884   0.00000  -0.01106  -0.01222  35.09889
   Y347      55.89810   0.00692   0.00000   0.00078   0.00048  55.89857
   Z347      37.11422   0.00814   0.00000   0.00520   0.00553  37.11975
   X348      36.20715   0.01665   0.00000   0.01463   0.01358  36.22073
   Y348      54.53750  -0.01132   0.00000  -0.00425  -0.00447  54.53303
   Z348      36.71738  -0.00649   0.00000  -0.00575  -0.00545  36.71193
   X349      35.99928   0.00282   0.00000   0.00100  -0.00026  35.99902
   Y349      57.37209   0.00242   0.00000   0.00084   0.00062  57.37270
   Z349      36.54730   0.00122   0.00000   0.00455   0.00489  36.55220
   X350      33.73161  -0.00840   0.00000  -0.00623  -0.00560  33.72601
   Y350      33.22139  -0.01899   0.00000  -0.01281  -0.01349  33.20789
   Z350      55.06662  -0.00311   0.00000  -0.00487  -0.00489  55.06173
   X351      34.20404   0.00147   0.00000  -0.00164  -0.00106  34.20299
   Y351      33.80720   0.00563   0.00000   0.00441   0.00373  33.81093
   Z351      56.71068   0.00445   0.00000  -0.00058  -0.00059  56.71009
   X352      34.26073   0.00806   0.00000   0.00805   0.00857  34.26930
   Y352      34.54419   0.01237   0.00000   0.00866   0.00803  34.55222
   Z352      53.95168  -0.00411   0.00000   0.00048   0.00048  53.95216
   X353      39.87322  -0.01820   0.00000  -0.00907  -0.01017  39.86305
   Y353      55.44456   0.02999   0.00000   0.02490   0.02489  55.46946
   Z353      40.79919   0.03058   0.00000   0.02765   0.02795  40.82714
   X354      38.70159   0.00096   0.00000  -0.00190  -0.00293  38.69866
   Y354      54.42411  -0.00233   0.00000  -0.00375  -0.00386  54.42026
   Z354      41.74405  -0.00440   0.00000  -0.00380  -0.00351  41.74054
   X355      40.74250   0.00845   0.00000  -0.00131  -0.00233  40.74016
   Y355      54.29183  -0.01483   0.00000   0.00148   0.00156  54.29339
   Z355      39.74094  -0.01447   0.00000  -0.00418  -0.00390  39.73704
   X356      40.87478  -0.01405   0.00000  -0.00681  -0.00678  40.86799
   Y356      41.29052   0.01473   0.00000   0.01399   0.01383  41.30434
   Z356      55.82251   0.00548   0.00000   0.00451   0.00459  55.82710
   X357      42.23538   0.00938   0.00000   0.00169   0.00179  42.23717
   Y357      40.32676  -0.01374   0.00000  -0.01380  -0.01387  40.31289
   Z357      56.48391  -0.00012   0.00000  -0.00461  -0.00456  56.47936
   X358      41.08265   0.00264   0.00000   0.00141   0.00143  41.08408
   Y358      41.21493  -0.00101   0.00000   0.00017   0.00005  41.21498
   Z358      54.02727  -0.00740   0.00000  -0.00381  -0.00374  54.02353
   X359      47.43213  -0.01051   0.00000  -0.01084  -0.01131  47.42082
   Y359      47.39433   0.02254   0.00000   0.01800   0.01843  47.41276
   Z359      49.34075   0.00660   0.00000   0.00239   0.00253  49.34328
   X360      47.79117   0.01103   0.00000   0.01444   0.01411  47.80528
   Y360      45.65578  -0.01376   0.00000  -0.00347  -0.00301  45.65278
   Z360      48.96280   0.00497   0.00000   0.01468   0.01479  48.97760
   X361      48.15022   0.00130   0.00000   0.00096   0.00042  48.15064
   Y361      48.32030   0.00009   0.00000  -0.00026   0.00024  48.32054
   Z361      47.96125  -0.00591   0.00000  -0.00762  -0.00746  47.95378
   X362      47.52661  -0.01360   0.00000  -0.01315  -0.01190  47.51471
   Y362      23.92393   0.00808   0.00000   0.00543   0.00605  23.92998
   Z362      37.22760  -0.00786   0.00000  -0.00660  -0.00682  37.22078
   X363      48.60376   0.00995   0.00000   0.00964   0.01084  48.61460
   Y363      24.60423  -0.00387   0.00000  -0.00842  -0.00773  24.59650
   Z363      38.53152   0.00134   0.00000  -0.00433  -0.00455  38.52696
   X364      48.20691   0.00079   0.00000  -0.00531  -0.00394  48.20298
   Y364      22.27987  -0.00720   0.00000  -0.00418  -0.00349  22.27638
   Z364      36.90635   0.00036   0.00000   0.00063   0.00038  36.90673
   X365      36.90635   0.01883   0.00000   0.01729   0.01640  36.92275
   Y365      51.74070   0.01003   0.00000   0.00641   0.00641  51.74711
   Z365      26.21050  -0.00729   0.00000  -0.00145  -0.00119  26.20931
   X366      35.94259  -0.01065   0.00000  -0.00685  -0.00762  35.93497
   Y366      50.21002  -0.00810   0.00000   0.00000  -0.00007  50.20995
   Z366      26.22940   0.00553   0.00000   0.00657   0.00680  26.23620
   X367      36.26384  -0.00871   0.00000  -0.00874  -0.00970  36.25415
   Y367      52.68556   0.00057   0.00000  -0.00185  -0.00192  52.68364
   Z367      27.60890   0.00850   0.00000   0.00588   0.00615  27.61505
   X368      47.94235  -0.00766   0.00000  -0.00640  -0.00530  47.93705
   Y368      25.47351   0.00000   0.00000  -0.00062   0.00013  25.47364
   Z368      31.55843   0.00343   0.00000  -0.00031  -0.00052  31.55791
   X369      49.54862   0.00345   0.00000  -0.00136  -0.00021  49.54841
   Y369      25.00108  -0.00295   0.00000  -0.00376  -0.00290  24.99818
   Z369      32.25763   0.00499   0.00000   0.00606   0.00584  32.26347
   X370      48.33919   0.00210   0.00000   0.00075   0.00181  48.34100
   Y370      25.94594   0.00267   0.00000   0.00159   0.00240  25.94834
   Z370      29.85767  -0.01049   0.00000  -0.00890  -0.00910  29.84857
   X371      53.61153   0.00508   0.00000   0.00634   0.00657  53.61810
   Y371      38.02129  -0.01612   0.00000  -0.01040  -0.00946  38.01183
   Z371      46.41167   0.01195   0.00000   0.01040   0.01037  46.42205
   X372      55.06662   0.00342   0.00000   0.00220   0.00244  55.06906
   Y372      37.85121  -0.00034   0.00000  -0.00296  -0.00189  37.84932
   Z372      45.35343  -0.00532   0.00000  -0.00535  -0.00539  45.34803
   X373      52.91233   0.00095   0.00000   0.00748   0.00759  52.91992
   Y373      39.62756   0.01506   0.00000   0.00803   0.00892  39.63648
   Z373      45.95814  -0.00741   0.00000  -0.00645  -0.00645  45.95169
   X374      23.64047   0.00336   0.00000  -0.00136  -0.00103  23.63944
   Y374      35.71582  -0.00641   0.00000  -0.00822  -0.00923  35.70659
   Z374      27.91125   0.00353   0.00000  -0.00164  -0.00158  27.90968
   X375      22.92238  -0.00198   0.00000   0.00037   0.00064  22.92301
   Y375      36.30164   0.00465   0.00000   0.00488   0.00383  36.30547
   Z375      26.36168  -0.01160   0.00000  -0.01071  -0.01064  26.35104
   X376      22.37436  -0.00747   0.00000  -0.01069  -0.01028  22.36407
   Y376      34.61978  -0.00329   0.00000  -0.00235  -0.00347  34.61631
   Z376      28.61045   0.00250   0.00000   0.00222   0.00227  28.61272
   X377      42.49994   0.00558   0.00000   0.00241   0.00371  42.50366
   Y377      23.90504  -0.01210   0.00000  -0.00693  -0.00688  23.89816
   Z377      50.02105   0.01386   0.00000   0.01915   0.01894  50.03999
   X378      44.12511   0.00049   0.00000  -0.00153  -0.00029  44.12482
   Y378      24.67982   0.00332   0.00000   0.00220   0.00238  24.68220
   Z378      49.79428  -0.00274   0.00000  -0.00349  -0.00369  49.79059
   X379      41.30941  -0.00052   0.00000   0.00506   0.00627  41.31568
   Y379      25.17115   0.00702   0.00000   0.00145   0.00142  25.17257
   Z379      49.51082  -0.01054   0.00000  -0.01420  -0.01438  49.49644
   X380      21.35391  -0.00146   0.00000  -0.00309  -0.00262  21.35128
   Y380      34.82765  -0.01285   0.00000  -0.00236  -0.00385  34.82381
   Z380      46.56285   0.01636   0.00000   0.01076   0.01082  46.57367
   X381      21.20273   0.00350   0.00000   0.00612   0.00648  21.20921
   Y381      36.20715   0.01749   0.00000   0.01537   0.01389  36.22105
   Z381      45.41012  -0.01168   0.00000  -0.00477  -0.00469  45.40543
   X382      22.63892  -0.00264   0.00000  -0.00549  -0.00494  22.63398
   Y382      33.76941   0.00417   0.00000   0.00689   0.00552  33.77492
   Z382      45.82586  -0.00548   0.00000  -0.00772  -0.00768  45.81818
   X383      41.74405   0.00030   0.00000  -0.00153  -0.00066  41.74339
   Y383      28.06243  -0.01068   0.00000  -0.00802  -0.00759  28.05484
   Z383      22.12869   0.00423   0.00000   0.00120   0.00106  22.12976
   X384      42.49994   0.00396   0.00000   0.00262   0.00346  42.50340
   Y384      28.27030   0.00184   0.00000   0.00160   0.00212  28.27242
   Z384      20.50353  -0.00823   0.00000  -0.00603  -0.00617  20.49736
   X385      41.02595  -0.00547   0.00000  -0.00572  -0.00497  41.02098
   Y385      29.68760   0.00659   0.00000   0.00123   0.00160  29.68920
   Z385      22.48774   0.00615   0.00000   0.00886   0.00876  22.49650
         Item               Value     Threshold  Converged?
 Maximum Force            0.041539     0.000450     NO 
 RMS     Force            0.010718     0.000300     NO 
 Maximum Displacement     0.028603     0.001800     NO 
 RMS     Displacement     0.008812     0.001200     NO 
 Predicted change in Energy=-7.460306D-02
 GradGradGradGradGradGradGradGradGradGradGradGradGradGradGradGradGradGrad

 Leave Link  103 at Tue May  8 14:51:08 2018, MaxMem= 14763950080 cpu:      2856.6
 (Enter /cm/shared/gaussian/g09.e01/intel64-sandybridge/g09/l9999.exe)
 1\1\GINC-POPLE01\Force\RPBE1PBE\CC-pVDZ\Br1H256O128(1-)\M.PELUSO\08-Ma
 y-2018\0\\#p PBE1PBE/cc-pvDZ force Counterpoise=2 noSymm\\forces on ch
 loride comput - NWATER: 128\\-1,1\Br,20.,20.,20.\O,18.24,18.,21.73\H,1
 8.29,18.65,22.43\H,18.79,18.36,21.03\O,21.62,18.56,22.45\H,22.36,18.25
 ,21.93\H,20.97,18.82,21.79\O,19.33,19.67,16.67\H,19.35,20.01,17.56\H,1
 8.56,19.1,16.65\O,17.12,21.93,19.94\H,17.51,22.8,19.92\H,17.84,21.34,1
 9.74\O,18.7,20.85,22.98\H,18.85,21.09,22.07\H,19.2,21.5,23.49\O,18.96,
 16.78,18.93\H,18.98,17.73,18.85\H,18.03,16.56,18.81\O,23.47,18.86,19.7
 2\H,22.77,19.52,19.73\H,23.16,18.2,19.1\O,21.02,22.87,18.75\H,20.7,23.
 62,18.25\H,20.37,22.75,19.44\O,21.77,17.32,18.16\H,21.13,18.01,18.29\H
 ,21.47,16.6,18.71\O,21.72,21.58,23.12\H,21.83,22.08,22.31\H,22.16,20.7
 5,22.95\O,23.01,21.33,17.22\H,23.11,21.74,16.36\H,22.1,21.49,17.45\O,1
 9.21,22.52,15.75\H,18.75,21.97,15.11\H,19.61,21.89,16.36\O,21.85,23.85
 ,21.37\H,22.16,24.75,21.48\H,21.8,23.72,20.42\O,15.19,18.87,21.31\H,14
 .89,19.66,20.87\H,16.13,18.85,21.15\O,18.8,15.61,22.95\H,17.91,15.36,2
 3.18\H,18.71,16.41,22.44\O,21.38,19.23,14.89\H,20.66,19.35,15.51\H,22.
 16,19.48,15.38\O,25.2,19.15,21.69\H,25.49,19.98,21.29\H,24.38,18.94,21
 .25\O,19.66,23.48,23.45\H,19.76,24.08,22.71\H,20.51,23.05,23.53\O,17.2
 1,18.13,16.67\H,16.31,18.31,16.38\H,17.22,17.19,16.84\O,25.12,21.6,20.
 34\H,25.44,22.26,20.96\H,24.36,22.,19.92\O,20.37,14.64,20.86\H,19.74,1
 4.75,21.57\H,19.96,15.07,20.11\O,17.36,18.94,24.5\H,16.46,18.94,24.17\
 H,17.66,19.84,24.36\O,14.45,20.68,19.6\H,15.22,21.23,19.43\H,14.25,20.
 29,18.75\O,16.32,22.64,23.92\H,16.78,22.28,23.16\H,16.28,23.58,23.75\O
 ,23.87,15.94,22.03\H,23.65,15.01,21.94\H,23.28,16.38,21.41\O,18.24,24.
 67,18.5\H,18.9,24.83,17.83\H,18.36,25.36,19.15\O,24.15,18.28,16.1\H,24
 .05,18.67,16.97\H,23.96,17.36,16.22\O,21.65,19.28,25.73\H,21.63,18.88,
 24.86\H,21.71,18.53,26.33\O,22.5,15.96,16.01\H,22.14,15.1,16.2\H,22.19
 ,16.52,16.72\O,23.43,24.83,18.86\H,23.4,24.01,18.38\H,24.21,24.76,19.4
 2\O,15.51,23.95,18.06\H,16.38,23.96,18.47\H,14.91,24.21,18.76\O,20.23,
 24.83,16.74\H,20.05,24.08,16.17\H,21.,25.24,16.37\O,23.49,23.36,24.3\H
 ,22.95,22.62,24.02\H,23.84,23.09,25.15\O,14.9,18.86,23.9\H,15.12,18.93
 ,22.98\H,14.51,17.99,24.\O,25.91,21.43,17.54\H,24.97,21.47,17.35\H,25.
 97,21.6,18.48\O,18.6,15.72,15.44\H,19.28,16.39,15.42\H,18.77,15.18,14.
 67\O,16.54,15.47,18.28\H,16.71,14.52,18.28\H,15.59,15.54,18.26\O,18.27
 ,25.58,21.36\H,18.96,26.02,21.85\H,17.54,25.5,21.97\O,22.63,14.39,19.1
 4\H,21.89,14.31,19.74\H,23.3,13.82,19.51\O,25.08,16.08,17.68\H,24.44,1
 6.09,18.38\H,25.11,15.17,17.38\O,15.03,16.12,21.2\H,14.7,16.98,21.45\H
 ,15.33,15.73,22.01\O,14.25,16.88,18.54\H,14.59,16.82,19.43\H,13.37,16.
 5,18.59\O,23.35,16.71,24.86\H,23.34,16.4,23.96\H,24.18,16.38,25.22\O,2
 4.91,18.93,24.38\H,24.27,18.22,24.31\H,25.38,18.9,23.55\O,21.08,23.26,
 26.37\H,20.36,23.89,26.31\H,20.76,22.5,25.89\O,20.96,16.43,13.77\H,21.
 06,17.3,14.16\H,21.57,15.88,14.27\O,18.14,24.47,25.73\H,18.95,24.97,25
 .82\H,18.31,23.87,25.\O,15.98,23.77,15.4\H,16.5,22.97,15.3\H,15.78,23.
 8,16.34\O,23.98,20.74,26.09\H,23.16,20.35,25.79\H,24.66,20.23,25.63\O,
 23.23,22.97,15.05\H,23.11,22.92,14.11\H,23.28,23.91,15.23\O,19.08,19.1
 9,27.09\H,19.79,19.69,26.69\H,18.79,18.6,26.39\O,16.9,16.9,26.2\H,16.5
 2,17.44,26.9\H,16.92,17.48,25.44\O,20.78,14.18,24.98\H,20.08,14.18,25.
 62\H,20.62,14.95,24.44\O,25.77,23.79,21.74\H,25.09,23.98,22.38\H,25.94
 ,24.63,21.31\O,17.23,17.68,13.31\H,17.03,17.63,14.24\H,17.56,16.8,13.0
 9\O,19.04,13.46,16.83\H,19.76,12.98,16.43\H,18.92,14.22,16.27\O,14.77,
 17.61,15.62\H,13.98,17.84,15.13\H,14.46,17.49,16.52\O,26.92,17.26,22.5
 9\H,27.28,16.7,21.9\H,26.44,17.94,22.13\O,23.16,25.76,16.13\H,23.09,25
 .77,17.08\H,23.52,26.62,15.91\O,16.05,21.58,26.46\H,15.38,20.92,26.26\
 H,16.1,22.12,25.67\O,13.5,22.9,23.71\H,13.37,23.68,24.25\H,14.45,22.81
 ,23.63\O,22.05,13.31,16.62\H,22.28,13.64,17.49\H,22.88,13.02,16.24\O,2
 4.67,19.67,13.68\H,24.38,18.99,13.07\H,24.66,19.24,14.54\O,22.89,25.95
 ,24.46\H,22.87,25.97,25.42\H,23.02,25.03,24.25\O,12.05,22.03,20.24\H,1
 2.93,21.74,20.\H,11.96,22.88,19.81\O,21.7,16.99,27.03\H,22.07,16.73,26
 .18\H,21.4,16.17,27.42\O,11.96,18.7,19.73\H,12.78,18.62,20.23\H,12.14,
 19.38,19.08\O,19.97,26.74,22.98\H,19.53,27.39,23.52\H,20.84,26.65,23.3
 7\O,13.27,20.28,16.97\H,13.05,19.79,16.18\H,13.11,21.19,16.75\O,16.63,
 27.56,19.36\H,17.04,26.81,19.79\H,17.06,28.32,19.76\O,15.82,15.02,23.6
 7\H,14.87,14.99,23.81\H,16.18,14.51,24.39\O,20.88,18.75,11.91\H,21.04,
 17.95,12.42\H,20.56,19.38,12.55\O,16.02,25.37,23.55\H,16.29,25.6,24.43
 \H,15.18,25.82,23.42\O,27.11,17.87,16.61\H,26.94,18.34,17.42\H,26.4,17
 .24,16.54\O,17.39,22.08,13.15\H,17.83,21.49,12.53\H,16.8,22.6,12.61\O,
 18.02,12.41,20.21\H,17.19,12.87,20.19\H,18.26,12.28,19.29\O,15.47,13.2
 6,21.1\H,15.14,14.15,20.98\H,15.72,13.21,22.02\O,17.75,25.24,13.7\H,17
 .55,24.54,14.32\H,18.29,24.83,13.03\O,23.27,13.29,21.93\H,22.66,12.91,
 22.56\H,23.32,12.64,21.23\O,20.57,11.53,18.93\H,19.7,11.41,19.31\H,20.
 87,12.37,19.29\O,16.55,12.72,17.77\H,17.42,13.04,17.51\H,16.23,12.27,1
 6.99\O,12.93,23.15,17.12\H,13.73,23.65,16.97\H,12.38,23.73,17.65\O,15.
 46,15.23,14.25\H,14.9,15.53,13.54\H,15.67,16.03,14.74\O,28.55,22.16,20
 .36\H,27.66,21.95,20.08\H,28.9,22.72,19.67\O,18.7,14.89,26.69\H,18.87,
 15.26,27.56\H,18.08,15.5,26.29\O,22.02,27.91,19.79\H,22.93,27.92,19.47
 \H,21.49,27.81,19.\O,27.75,22.41,23.47\H,27.88,22.53,22.53\H,26.8,22.3
 6,23.58\O,20.37,27.97,17.67\H,20.52,28.8,17.22\H,19.71,27.53,17.15\O,2
 7.41,21.42,15.19\H,26.9,21.2,15.98\H,27.65,20.58,14.82\O,17.84,27.61,1
 6.64\H,17.08,27.17,16.24\H,17.79,27.38,17.57\O,25.94,25.55,19.61\H,25.
 59,26.38,19.28\H,26.71,25.39,19.07\O,18.68,11.68,22.83\H,18.68,12.16,2
 2.\H,17.87,11.94,23.26\O,24.84,26.17,22.62\H,25.58,26.6,23.04\H,24.1,2
 6.35,23.2\O,11.83,20.82,23.08\H,11.36,21.39,22.47\H,12.56,21.35,23.39\
 O,25.86,22.57,26.26\H,25.19,21.9,26.19\H,26.28,22.4,27.11\O,27.49,15.9
 9,19.57\H,27.13,15.81,18.7\H,27.64,15.12,19.95\O,17.44,20.95,28.55\H,1
 8.21,20.51,28.18\H,16.82,21.02,27.82\O,13.28,16.64,23.81\H,13.54,16.64
 ,24.73\H,12.8,15.82,23.7\O,26.6,13.56,21.78\H,25.75,14.,21.8\H,27.1,13
 .96,22.48\O,12.61,24.99,21.81\H,12.81,24.91,20.88\H,12.9,24.16,22.2\O,
 13.68,20.04,26.35\H,13.06,20.76,26.27\H,13.53,19.51,25.57\O,26.28,24.8
 9,16.69\H,27.,24.37,17.06\H,26.03,25.48,17.4\O,14.09,24.35,13.95\H,14.
 81,23.95,14.45\H,14.43,24.43,13.06\O,13.8,25.91,19.36\H,13.76,26.43,18
 .56\H,13.59,26.54,20.06\O,22.23,25.18,12.42\H,23.1,25.48,12.18\H,22.29
 ,24.96,13.35\O,15.11,19.04,12.22\H,14.91,19.45,13.07\H,15.74,18.36,12.
 43\O,27.34,17.99,25.71\H,27.76,18.77,25.33\H,26.55,17.87,25.19\O,15.62
 ,26.74,15.32\H,15.52,25.78,15.34\H,15.72,26.95,14.39\O,19.9,26.16,26.1
 9\H,20.53,26.59,26.77\H,19.56,26.87,25.64\O,25.65,23.88,13.76\H,26.08,
 23.03,13.67\H,25.7,24.08,14.7\O,18.03,15.12,12.93\H,17.11,14.86,12.92\
 H,18.5,14.29,12.98\O,16.48,23.78,28.15\H,16.61,22.87,28.38\H,16.94,23.
 88,27.31\O,21.3,11.36,23.8\H,20.66,10.84,23.3\H,20.84,12.17,24.\O,12.0
 9,15.45,19.25\H,11.38,16.08,19.31\H,12.42,15.36,20.14\O,22.67,18.91,29
 .22\H,22.46,18.43,28.42\H,23.61,19.07,29.17\O,18.58,29.58,19.64\H,19.1
 6,28.86,19.43\H,19.05,30.36,19.34\O,17.85,17.58,29.14\H,18.1,17.89,30.
 01\H,18.13,18.28,28.55\O,21.1,29.34,21.59\H,20.48,28.8,22.09\H,21.56,2
 8.73,21.03\O,21.63,21.85,29.54\H,22.35,21.34,29.89\H,21.74,21.81,28.59
 \O,25.1,25.08,26.11\H,25.29,24.16,25.91\H,25.48,25.57,25.38\O,25.15,12
 .66,19.7\H,25.72,13.02,20.39\H,25.51,11.79,19.53\O,19.53,27.38,13.87\H
 ,19.02,26.57,13.88\H,19.19,27.88,14.61\O,25.37,13.48,16.7\H,26.22,13.2
 3,17.07\H,25.58,13.73,15.8\O,28.37,20.12,24.56\H,29.14,20.03,24.\H,28.
 ,20.97,24.32\O,12.51,18.9,14.77\H,12.13,19.21,13.95\H,11.84,18.32,15.1
 4\O,22.49,12.65,26.47\H,23.35,13.06,26.35\H,21.86,13.32,26.2\O,11.3,18
 .43,24.64\H,11.22,19.16,24.03\H,11.98,17.87,24.25\O,22.09,14.85,11.71\
 H,22.49,14.96,10.85\H,21.71,15.71,11.9\\Version=ES64L-G09RevE.01\HF=-9
 773.3482335\RMSD=1.221e-09\RMSF=1.072e-02\Dipole=-4.573663,3.2838436,-
 8.1570681\Quadrupole=-15.116623,607.9304569,-592.8138339,-1421.7052971
 ,-1900.1935931,-1587.6471949\PG=C01 [X(Br1H256O128)]\\@


 Life may have no meaning.  Or even worse, it may have a
 meaning of which I disapprove.
                                 -- Ashleigh Brilliant
 Job cpu time:       6 days 15 hours 27 minutes 18.1 seconds.
 File lengths (MBytes):  RWF=   7285 Int=      0 D2E=      0 Chk=   2411 Scr=      1
 Normal termination of Gaussian 09 at Tue May  8 14:51:33 2018.
