 Entering Gaussian System, Link 0=/cm/shared/gaussian/g09.e01/intel64-sandybridge/g09/g09
 Initial command:
 /cm/shared/gaussian/g09.e01/intel64-sandybridge/g09/l1.exe "/local/scratch/m.peluso/128_wat/Gau-32090.inp" -scrdir="/local/scratch/m.peluso/128_wat/"
 Entering Link 1 = /cm/shared/gaussian/g09.e01/intel64-sandybridge/g09/l1.exe PID=     32091.
  
 Copyright (c) 1988,1990,1992,1993,1995,1998,2003,2009,2015,
            Gaussian, Inc.  All Rights Reserved.
  
 This is part of the Gaussian(R) 09 program.  It is based on
 the Gaussian(R) 03 system (copyright 2003, Gaussian, Inc.),
 the Gaussian(R) 98 system (copyright 1998, Gaussian, Inc.),
 the Gaussian(R) 94 system (copyright 1995, Gaussian, Inc.),
 the Gaussian 92(TM) system (copyright 1992, Gaussian, Inc.),
 the Gaussian 90(TM) system (copyright 1990, Gaussian, Inc.),
 the Gaussian 88(TM) system (copyright 1988, Gaussian, Inc.),
 the Gaussian 86(TM) system (copyright 1986, Carnegie Mellon
 University), and the Gaussian 82(TM) system (copyright 1983,
 Carnegie Mellon University). Gaussian is a federally registered
 trademark of Gaussian, Inc.
  
 This software contains proprietary and confidential information,
 including trade secrets, belonging to Gaussian, Inc.
  
 This software is provided under written license and may be
 used, copied, transmitted, or stored only in accord with that
 written license.
  
 The following legend is applicable only to US Government
 contracts under FAR:
  
                    RESTRICTED RIGHTS LEGEND
  
 Use, reproduction and disclosure by the US Government is
 subject to restrictions as set forth in subparagraphs (a)
 and (c) of the Commercial Computer Software - Restricted
 Rights clause in FAR 52.227-19.
  
 Gaussian, Inc.
 340 Quinnipiac St., Bldg. 40, Wallingford CT 06492
  
  
 ---------------------------------------------------------------
 Warning -- This program may not be used in any manner that
 competes with the business of Gaussian, Inc. or will provide
 assistance to any competitor of Gaussian, Inc.  The licensee
 of this program is prohibited from giving any competitor of
 Gaussian, Inc. access to this program.  By using this program,
 the user acknowledges that Gaussian, Inc. is engaged in the
 business of creating and licensing software in the field of
 computational chemistry and represents and warrants to the
 licensee that it is not a competitor of Gaussian, Inc. and that
 it will not use this program in any manner prohibited above.
 ---------------------------------------------------------------
  

 Cite this work as:
 Gaussian 09, Revision E.01,
 M. J. Frisch, G. W. Trucks, H. B. Schlegel, G. E. Scuseria, 
 M. A. Robb, J. R. Cheeseman, G. Scalmani, V. Barone, B. Mennucci, 
 G. A. Petersson, H. Nakatsuji, M. Caricato, X. Li, H. P. Hratchian, 
 A. F. Izmaylov, J. Bloino, G. Zheng, J. L. Sonnenberg, M. Hada, 
 M. Ehara, K. Toyota, R. Fukuda, J. Hasegawa, M. Ishida, T. Nakajima, 
 Y. Honda, O. Kitao, H. Nakai, T. Vreven, J. A. Montgomery, Jr., 
 J. E. Peralta, F. Ogliaro, M. Bearpark, J. J. Heyd, E. Brothers, 
 K. N. Kudin, V. N. Staroverov, T. Keith, R. Kobayashi, J. Normand, 
 K. Raghavachari, A. Rendell, J. C. Burant, S. S. Iyengar, J. Tomasi, 
 M. Cossi, N. Rega, J. M. Millam, M. Klene, J. E. Knox, J. B. Cross, 
 V. Bakken, C. Adamo, J. Jaramillo, R. Gomperts, R. E. Stratmann, 
 O. Yazyev, A. J. Austin, R. Cammi, C. Pomelli, J. W. Ochterski, 
 R. L. Martin, K. Morokuma, V. G. Zakrzewski, G. A. Voth, 
 P. Salvador, J. J. Dannenberg, S. Dapprich, A. D. Daniels, 
 O. Farkas, J. B. Foresman, J. V. Ortiz, J. Cioslowski, 
 and D. J. Fox, Gaussian, Inc., Wallingford CT, 2013.
 
 ******************************************
 Gaussian 09:  ES64L-G09RevE.01 30-Nov-2015
                15-May-2018 
 ******************************************
 %Mem=110GB
 %NProcShared=64
 Will use up to   64 processors via shared memory.
 %chk=snap40.chk
 ----------------------------------------------
 #p PBE1PBE/cc-pvDZ force Counterpoise=2 noSymm
 ----------------------------------------------
 1/10=7,30=1,38=1,62=2/1,3;
 2/12=2,15=1,17=6,18=5,40=1/2;
 1/10=7,30=1,38=1,53=2,62=2,63=101/22;
 3/5=16,11=2,16=1,25=1,30=1,71=1,74=-13/1,2,3;
 4//1;
 5/5=2,38=5/2;
 6/7=2,8=2,9=2,10=2,28=1/1;
 7/7=1,29=1,30=1,33=-1/1,2,3,16;
 1/10=7,30=1,53=2,62=2,63=101/22;
 3/5=7,6=11,11=2,16=1,25=1,30=1,71=1,74=-13,82=7/1,2,3;
 4//1;
 5/5=2,38=5/2;
 6/7=2,8=2,9=2,10=2,28=1/1;
 7/7=1,29=1,30=1,33=-1/1,2,3,16;
 1/10=7,30=1,53=2,62=2,63=101/22(-5);
 7/9=1,29=1,44=-1/16;
 1/10=7,30=1,62=2/3;
 99//99;
 Leave Link    1 at Tue May 15 07:06:07 2018, MaxMem= 14763950080 cpu:         4.4
 (Enter /cm/shared/gaussian/g09.e01/intel64-sandybridge/g09/l101.exe)
 ---------------------------------------
 forces on chloride comput - NWATER: 128
 ---------------------------------------
 Symbolic Z-matrix:
 Charge = -1 Multiplicity = 1 in supermolecule
 Charge = -1 Multiplicity = 1 in fragment      1.
 Charge =  0 Multiplicity = 1 in fragment      2.
 Br(Fragment=1)        20.       20.       20. 
 O(Fragment=2)         18.14     22.13     18.34 
 H(Fragment=2)         18.53     22.99     18.48 
 H(Fragment=2)         18.71     21.52     18.81 
 O(Fragment=2)         23.23     19.41     19.58 
 H(Fragment=2)         22.33     19.73     19.68 
 H(Fragment=2)         23.41     18.93     20.38 
 O(Fragment=2)         21.23     18.6      17.29 
 H(Fragment=2)         20.52     17.96     17.22 
 H(Fragment=2)         20.93     19.21     17.96 
 O(Fragment=2)         20.47     17.05     21.54 
 H(Fragment=2)         20.06     16.5      20.87 
 H(Fragment=2)         20.43     17.93     21.18 
 O(Fragment=2)         20.74     22.93     21.58 
 H(Fragment=2)         20.14     22.28     21.21 
 H(Fragment=2)         21.05     23.42     20.82 
 O(Fragment=2)         17.52     20.7      22.42 
 H(Fragment=2)         17.92     20.25     21.67 
 H(Fragment=2)         16.58     20.63     22.27 
 O(Fragment=2)         21.16     20.06     23.5 
 H(Fragment=2)         20.63     20.47     24.19 
 H(Fragment=2)         20.54     19.92     22.78 
 O(Fragment=2)         18.49     19.29     16.22 
 H(Fragment=2)         17.77     19.91     16.14 
 H(Fragment=2)         18.94     19.54     17.03 
 O(Fragment=2)         22.45     20.93     16.5 
 H(Fragment=2)         23.18     20.32     16.61 
 H(Fragment=2)         21.67     20.4      16.69 
 O(Fragment=2)         23.58     21.22     22.16 
 H(Fragment=2)         23.52     22.02     22.68 
 H(Fragment=2)         22.81     20.71     22.41 
 O(Fragment=2)         19.46     17.15     24.15 
 H(Fragment=2)         18.83     16.45     23.95 
 H(Fragment=2)         19.78     17.44     23.29 
 O(Fragment=2)         23.17     17.77     21.98 
 H(Fragment=2)         23.3      17.76     22.92 
 H(Fragment=2)         22.46     17.16     21.82 
 O(Fragment=2)         18.03     16.66     16.92 
 H(Fragment=2)         18.7      16.27     16.36 
 H(Fragment=2)         18.09     17.6      16.76 
 O(Fragment=2)         19.48     15.35     19.5 
 H(Fragment=2)         18.85     14.69     19.79 
 H(Fragment=2)         19.08     15.73     18.71 
 O(Fragment=2)         24.82     22.06     19.83 
 H(Fragment=2)         25.01     21.36     19.21 
 H(Fragment=2)         24.22     21.66     20.47 
 O(Fragment=2)         24.45     18.95     17. 
 H(Fragment=2)         24.5      17.99     17.04 
 H(Fragment=2)         23.9      19.19     17.75 
 O(Fragment=2)         21.91     24.53     19.6 
 H(Fragment=2)         22.68     24.63     20.15 
 H(Fragment=2)         22.18     23.93     18.91 
 O(Fragment=2)         19.36     24.7      18.96 
 H(Fragment=2)         18.91     25.55     19.03 
 H(Fragment=2)         20.27     24.89     19.2 
 O(Fragment=2)         23.83     16.5      18.5 
 H(Fragment=2)         23.07     16.32     19.04 
 H(Fragment=2)         24.49     16.84     19.11 
 O(Fragment=2)         22.86     18.28     24.52 
 H(Fragment=2)         22.2      18.05     25.17 
 H(Fragment=2)         22.53     19.07     24.1 
 O(Fragment=2)         18.85     24.91     22.63 
 H(Fragment=2)         19.29     25.72     22.39 
 H(Fragment=2)         19.52     24.23     22.52 
 O(Fragment=2)         20.78     23.       15.15 
 H(Fragment=2)         21.15     22.38     15.78 
 H(Fragment=2)         20.96     23.86     15.53 
 O(Fragment=2)         22.26     23.08     24.44 
 H(Fragment=2)         21.58     23.36     25.05 
 H(Fragment=2)         21.8      22.98     23.6 
 O(Fragment=2)         14.68     22.       18.76 
 H(Fragment=2)         15.62     22.16     18.85 
 H(Fragment=2)         14.54     21.92     17.82 
 O(Fragment=2)         15.22     18.34     22.32 
 H(Fragment=2)         14.81     17.54     21.97 
 H(Fragment=2)         15.25     18.94     21.58 
 O(Fragment=2)         23.1      23.3      17.28 
 H(Fragment=2)         24.02     23.52     17.42 
 H(Fragment=2)         23.13     22.48     16.79 
 O(Fragment=2)         16.05     23.59     21.82 
 H(Fragment=2)         15.56     24.23     21.31 
 H(Fragment=2)         16.97     23.82     21.67 
 O(Fragment=2)         16.45     24.51     17.87 
 H(Fragment=2)         15.92     24.89     18.56 
 H(Fragment=2)         16.69     23.64     18.21 
 O(Fragment=2)         19.56     21.34     25.16 
 H(Fragment=2)         19.92     22.02     25.74 
 H(Fragment=2)         18.75     21.71     24.82 
 O(Fragment=2)         17.34     22.93     24.56 
 H(Fragment=2)         16.98     22.52     23.76 
 H(Fragment=2)         17.72     23.75     24.26 
 O(Fragment=2)         16.26     19.15     24.8 
 H(Fragment=2)         17.17     19.43     24.66 
 H(Fragment=2)         15.97     18.85     23.94 
 O(Fragment=2)         17.99     15.33     22.52 
 H(Fragment=2)         17.54     15.39     21.68 
 H(Fragment=2)         18.79     14.84     22.32 
 O(Fragment=2)         14.52     20.8      21.57 
 H(Fragment=2)         14.88     21.68     21.68 
 H(Fragment=2)         14.54     20.64     20.62 
 O(Fragment=2)         22.14     14.61     20.28 
 H(Fragment=2)         21.19     14.53     20.19 
 H(Fragment=2)         22.31     14.32     21.18 
 O(Fragment=2)         20.47     19.02     26.06 
 H(Fragment=2)         19.95     19.77     25.77 
 H(Fragment=2)         20.34     18.36     25.38 
 O(Fragment=2)         15.55     16.13     17.69 
 H(Fragment=2)         15.43     15.3      17.24 
 H(Fragment=2)         16.41     16.44     17.39 
 O(Fragment=2)         14.43     18.68     19.45 
 H(Fragment=2)         14.73     18.33     18.61 
 H(Fragment=2)         13.64     18.18     19.66 
 O(Fragment=2)         25.55     17.22     20.7 
 H(Fragment=2)         26.12     17.86     21.15 
 H(Fragment=2)         24.8      17.12     21.28 
 O(Fragment=2)         25.85     19.82     23.32 
 H(Fragment=2)         25.22     20.04     22.64 
 H(Fragment=2)         25.5      20.23     24.12 
 O(Fragment=2)         23.13     16.08     15.75 
 H(Fragment=2)         23.01     16.21     16.69 
 H(Fragment=2)         23.55     16.89     15.45 
 O(Fragment=2)         16.07     15.65     20.32 
 H(Fragment=2)         15.37     15.17     20.77 
 H(Fragment=2)         15.68     15.91     19.48 
 O(Fragment=2)         16.57     21.3      15.17 
 H(Fragment=2)         17.03     22.11     15.38 
 H(Fragment=2)         15.73     21.38     15.61 
 O(Fragment=2)         20.08     15.82     15.5 
 H(Fragment=2)         20.84     16.36     15.29 
 H(Fragment=2)         19.96     15.26     14.73 
 O(Fragment=2)         17.55     18.07     13.84 
 H(Fragment=2)         16.68     18.31     13.51 
 H(Fragment=2)         17.57     18.42     14.73 
 O(Fragment=2)         20.9      25.49     16.36 
 H(Fragment=2)         21.12     26.24     16.92 
 H(Fragment=2)         20.14     25.09     16.79 
 O(Fragment=2)         21.89     13.93     17.57 
 H(Fragment=2)         21.35     14.69     17.35 
 H(Fragment=2)         22.18     14.09     18.47 
 O(Fragment=2)         26.41     20.46     17.84 
 H(Fragment=2)         27.05     20.34     17.13 
 H(Fragment=2)         25.64     19.98     17.55 
 O(Fragment=2)         16.01     15.91     24.21 
 H(Fragment=2)         16.69     15.45     23.71 
 H(Fragment=2)         15.82     16.69     23.7 
 O(Fragment=2)         18.25     23.32     14.23 
 H(Fragment=2)         19.2      23.29     14.35 
 H(Fragment=2)         18.14     23.37     13.28 
 O(Fragment=2)         27.26     20.67     20.46 
 H(Fragment=2)         26.52     21.08     20.9 
 H(Fragment=2)         26.93     20.44     19.59 
 O(Fragment=2)         20.72     27.07     21.61 
 H(Fragment=2)         21.45     26.5      21.37 
 H(Fragment=2)         20.78     27.81     20.99 
 O(Fragment=2)         18.01     16.91     26.66 
 H(Fragment=2)         18.71     17.12     26.04 
 H(Fragment=2)         17.28     16.65     26.1 
 O(Fragment=2)         16.05     24.52     15.35 
 H(Fragment=2)         16.77     24.07     14.91 
 H(Fragment=2)         16.34     24.6      16.26 
 O(Fragment=2)         26.5      24.31     20.15 
 H(Fragment=2)         25.92     24.87     19.64 
 H(Fragment=2)         26.07     23.45     20.14 
 O(Fragment=2)         22.6      22.5      13.02 
 H(Fragment=2)         23.24     23.14     13.33 
 H(Fragment=2)         21.98     22.41     13.74 
 O(Fragment=2)         14.23     24.19     23.74 
 H(Fragment=2)         13.48     23.92     23.2 
 H(Fragment=2)         14.97     23.71     23.37 
 O(Fragment=2)         23.5      15.85     25.78 
 H(Fragment=2)         23.09     16.15     26.59 
 H(Fragment=2)         23.55     16.63     25.23 
 O(Fragment=2)         20.08     24.39     25.67 
 H(Fragment=2)         20.33     25.22     25.27 
 H(Fragment=2)         20.29     24.5      26.6 
 O(Fragment=2)         12.55     19.32     22.97 
 H(Fragment=2)         13.4      18.91     22.79 
 H(Fragment=2)         12.67     20.24     22.71 
 O(Fragment=2)         25.23     20.03     25.9 
 H(Fragment=2)         24.3      19.85     25.91 
 H(Fragment=2)         25.55     19.66     26.73 
 O(Fragment=2)         24.65     17.8      14.34 
 H(Fragment=2)         24.55     18.75     14.39 
 H(Fragment=2)         25.6      17.66     14.29 
 O(Fragment=2)         13.96     21.83     16.13 
 H(Fragment=2)         13.54     22.36     15.45 
 H(Fragment=2)         13.43     21.03     16.17 
 O(Fragment=2)         16.55     13.1      17.39 
 H(Fragment=2)         17.2      13.43     18.02 
 H(Fragment=2)         17.05     12.5      16.83 
 O(Fragment=2)         25.68     14.03     20.82 
 H(Fragment=2)         26.63     14.12     20.86 
 H(Fragment=2)         25.35     14.93     20.79 
 O(Fragment=2)         24.54     26.47     18.62 
 H(Fragment=2)         24.76     27.       17.86 
 H(Fragment=2)         23.6      26.32     18.56 
 O(Fragment=2)         23.17     14.01     23.03 
 H(Fragment=2)         23.21     13.07     22.89 
 H(Fragment=2)         22.67     14.1      23.85 
 O(Fragment=2)         18.39     12.81     20.94 
 H(Fragment=2)         18.57     11.99     20.48 
 H(Fragment=2)         17.55     12.67     21.37 
 O(Fragment=2)         25.03     24.95     23.69 
 H(Fragment=2)         24.96     25.7      24.28 
 H(Fragment=2)         24.47     25.17     22.95 
 O(Fragment=2)         25.67     15.11     16.75 
 H(Fragment=2)         25.63     14.25     17.17 
 H(Fragment=2)         24.76     15.33     16.57 
 O(Fragment=2)         24.6      23.02     26.18 
 H(Fragment=2)         23.94     23.29     25.54 
 H(Fragment=2)         24.55     22.07     26.18 
 O(Fragment=2)         24.03     26.32     21.12 
 H(Fragment=2)         24.69     26.87     21.55 
 H(Fragment=2)         24.25     26.38     20.19 
 O(Fragment=2)         12.28     19.99     17.3 
 H(Fragment=2)         11.33     20.08     17.43 
 H(Fragment=2)         12.64     19.96     18.19 
 O(Fragment=2)         25.3      15.61     23.21 
 H(Fragment=2)         25.25     15.46     24.15 
 H(Fragment=2)         24.91     14.83     22.82 
 O(Fragment=2)         22.93     19.84     27.47 
 H(Fragment=2)         22.12     19.36     27.27 
 H(Fragment=2)         23.59     19.17     27.62 
 O(Fragment=2)         19.15     12.43     16.66 
 H(Fragment=2)         19.08     13.03     15.91 
 H(Fragment=2)         19.67     12.9      17.3 
 O(Fragment=2)         21.91     17.94     12.93 
 H(Fragment=2)         22.79     17.63     13.14 
 H(Fragment=2)         22.05     18.61     12.26 
 O(Fragment=2)         16.58     23.66     26.9 
 H(Fragment=2)         16.66     23.3      26.01 
 H(Fragment=2)         16.12     24.49     26.78 
 O(Fragment=2)         13.51     16.17     21.18 
 H(Fragment=2)         13.5      15.34     20.7 
 H(Fragment=2)         12.6      16.32     21.43 
 O(Fragment=2)         14.02     20.23     26.07 
 H(Fragment=2)         13.98     19.83     26.94 
 H(Fragment=2)         14.84     19.91     25.69 
 O(Fragment=2)         22.9      25.57     14.33 
 H(Fragment=2)         23.13     26.5      14.39 
 H(Fragment=2)         22.29     25.43     15.06 
 O(Fragment=2)         20.87     26.64     24.54 
 H(Fragment=2)         20.85     26.8      23.6 
 H(Fragment=2)         20.68     27.49     24.94 
 O(Fragment=2)         24.48     20.7      13.65 
 H(Fragment=2)         25.14     21.02     14.27 
 H(Fragment=2)         24.       21.48     13.39 
 O(Fragment=2)         18.97     27.61     18.73 
 H(Fragment=2)         18.41     28.21     19.22 
 H(Fragment=2)         19.22     28.1      17.95 
 O(Fragment=2)         16.44     19.26     27.78 
 H(Fragment=2)         16.97     20.05     27.85 
 H(Fragment=2)         16.39     19.09     26.84 
 O(Fragment=2)         25.97     23.43     16.36 
 H(Fragment=2)         26.11     24.18     16.94 
 H(Fragment=2)         26.73     22.87     16.5 
 O(Fragment=2)         14.44     25.5      20.25 
 H(Fragment=2)         14.58     26.25     19.66 
 H(Fragment=2)         13.53     25.6      20.54 
 O(Fragment=2)         19.08     18.86     28.62 
 H(Fragment=2)         18.22     18.5      28.38 
 H(Fragment=2)         19.49     19.07     27.79 
 O(Fragment=2)         18.16     28.07     22.36 
 H(Fragment=2)         18.92     27.55     22.08 
 H(Fragment=2)         18.04     27.84     23.28 
 O(Fragment=2)         16.5      21.1      11.93 
 H(Fragment=2)         16.41     20.21     11.58 
 H(Fragment=2)         16.81     20.97     12.83 
 O(Fragment=2)         22.23     27.35     17.92 
 H(Fragment=2)         21.83     27.65     18.74 
 H(Fragment=2)         22.29     28.13     17.38 
 O(Fragment=2)         12.61     17.24     17.65 
 H(Fragment=2)         12.66     18.06     17.17 
 H(Fragment=2)         13.27     16.68     17.24 
 O(Fragment=2)         27.21     17.47     24.07 
 H(Fragment=2)         26.57     16.88     23.67 
 H(Fragment=2)         26.86     18.35     23.91 
 O(Fragment=2)         11.83     23.81     18.64 
 H(Fragment=2)         12.64     23.44     19. 
 H(Fragment=2)         11.73     24.64     19.11 
 O(Fragment=2)         11.25     18.76     20.6 
 H(Fragment=2)         10.93     19.66     20.48 
 H(Fragment=2)         11.96     18.84     21.24 
 O(Fragment=2)         19.59     17.28     11.59 
 H(Fragment=2)         18.91     17.24     12.27 
 H(Fragment=2)         20.38     17.54     12.07 
 O(Fragment=2)         28.36     20.97     23.74 
 H(Fragment=2)         28.       21.67     24.3 
 H(Fragment=2)         27.59     20.54     23.37 
 O(Fragment=2)         15.58     27.29     22.7 
 H(Fragment=2)         16.48     27.42     22.37 
 H(Fragment=2)         15.26     26.53     22.21 
 O(Fragment=2)         24.98     23.82     13.9 
 H(Fragment=2)         24.67     24.73     13.95 
 H(Fragment=2)         25.39     23.67     14.75 
 O(Fragment=2)         22.92     11.89     16.28 
 H(Fragment=2)         23.16     12.36     15.48 
 H(Fragment=2)         22.66     12.58     16.89 
 O(Fragment=2)         22.94     13.67     13.99 
 H(Fragment=2)         23.26     14.4      14.52 
 H(Fragment=2)         21.99     13.79     13.97 
 O(Fragment=2)         15.86     12.43     22.01 
 H(Fragment=2)         15.36     13.05     21.48 
 H(Fragment=2)         15.43     11.59     21.86 
 O(Fragment=2)         20.88     16.48     27.92 
 H(Fragment=2)         21.22     16.8      28.76 
 H(Fragment=2)         19.96     16.74     27.93 
 O(Fragment=2)         18.51     22.27     28.48 
 H(Fragment=2)         19.21     22.89     28.29 
 H(Fragment=2)         17.78     22.55     27.92 
 O(Fragment=2)         22.34     20.05     11.28 
 H(Fragment=2)         22.5      20.84     11.8 
 H(Fragment=2)         22.73     20.25     10.43 
 O(Fragment=2)         17.54     13.9      14.29 
 H(Fragment=2)         16.77     14.48     14.23 
 H(Fragment=2)         17.17     13.03     14.38 
 O(Fragment=2)         13.21     25.09     15.99 
 H(Fragment=2)         14.13     24.84     15.95 
 H(Fragment=2)         12.94     24.87     16.89 
 O(Fragment=2)         27.6      24.04     22.91 
 H(Fragment=2)         26.74     24.41     23.1 
 H(Fragment=2)         27.62     23.98     21.95 
 O(Fragment=2)         19.08     27.42     14.94 
 H(Fragment=2)         19.96     27.04     14.86 
 H(Fragment=2)         19.21     28.36     14.82 
 O(Fragment=2)         15.34     14.17     26.14 
 H(Fragment=2)         15.57     14.81     25.48 
 H(Fragment=2)         16.11     13.61     26.22 
 O(Fragment=2)         17.66     27.23     24.9 
 H(Fragment=2)         17.43     27.96     25.47 
 H(Fragment=2)         17.1      26.51     25.19 
 O(Fragment=2)         16.12     27.43     15.75 
 H(Fragment=2)         17.       27.71     15.49 
 H(Fragment=2)         16.07     26.51     15.47 
 O(Fragment=2)         25.44     12.66     18.39 
 H(Fragment=2)         25.56     13.13     19.21 
 H(Fragment=2)         24.73     12.05     18.57 
 O(Fragment=2)         11.29     21.67     20.69 
 H(Fragment=2)         10.55     22.06     20.2 
 H(Fragment=2)         11.48     22.31     21.37 
 O(Fragment=2)         29.84     20.42     20.27 
 H(Fragment=2)         28.89     20.47     20.42 
 H(Fragment=2)         30.       19.49     20.08 
 O(Fragment=2)         20.07     13.49     13.69 
 H(Fragment=2)         19.16     13.78     13.67 
 H(Fragment=2)         20.02     12.54     13.56 
 O(Fragment=2)         13.72     13.69     20.47 
 H(Fragment=2)         12.97     13.4      20.99 
 H(Fragment=2)         13.51     13.43     19.57 
 O(Fragment=2)         21.22     23.07     10.91 
 H(Fragment=2)         21.7      22.79     11.7 
 H(Fragment=2)         20.34     22.73     11.04 
 O(Fragment=2)         14.72     27.34     18.41 
 H(Fragment=2)         14.38     28.23     18.3 
 H(Fragment=2)         15.28     27.2      17.64 
 O(Fragment=2)         22.27     21.91     29.23 
 H(Fragment=2)         21.8      21.38     29.87 
 H(Fragment=2)         22.44     21.32     28.5 
 O(Fragment=2)         19.98     12.33     24.62 
 H(Fragment=2)         20.43     11.66     24.1 
 H(Fragment=2)         19.05     12.18     24.45 
 O(Fragment=2)         18.45     23.       11.41 
 H(Fragment=2)         17.86     22.25     11.5 
 H(Fragment=2)         18.47     23.18     10.47 
 O(Fragment=2)         14.5      17.88     13.11 
 H(Fragment=2)         14.25     18.8      13.1 
 H(Fragment=2)         14.33     17.58     12.21 
 O(Fragment=2)         17.26     11.55     24.45 
 H(Fragment=2)         17.28     12.13     23.69 
 H(Fragment=2)         16.35     11.23     24.48 
 O(Fragment=2)         14.47     25.68     25.99 
 H(Fragment=2)         13.98     26.39     25.58 
 H(Fragment=2)         14.53     25.       25.31 
 O(Fragment=2)         17.09     29.45     20.22 
 H(Fragment=2)         16.74     30.1      20.83 
 H(Fragment=2)         17.38     28.73     20.78 
 O(Fragment=2)         13.22     15.46     14.28 
 H(Fragment=2)         13.91     16.12     14.33 
 H(Fragment=2)         12.48     15.92     13.88 
 O(Fragment=2)         21.04     13.66     27.18 
 H(Fragment=2)         20.77     14.55     27.41 
 H(Fragment=2)         20.38     13.37     26.54 
 O(Fragment=2)         29.42     16.36     20.03 
 H(Fragment=2)         28.54     16.44     20.41 
 H(Fragment=2)         29.33     15.64     19.4 
 
 NAtoms=    385 NQM=      385 NQMF=       0 NMMI=      0 NMMIF=      0
                NMic=       0 NMicF=      0.
                    Isotopes and Nuclear Properties:
 (Nuclear quadrupole moments (NQMom) in fm**2, nuclear magnetic moments (NMagM)
  in nuclear magnetons)

  Atom         1           2           3           4           5           6           7           8           9          10
 IAtWgt=          79          16           1           1          16           1           1          16           1           1
 AtmWgt=  78.9183361  15.9949146   1.0078250   1.0078250  15.9949146   1.0078250   1.0078250  15.9949146   1.0078250   1.0078250
 NucSpn=           3           0           1           1           0           1           1           0           1           1
 AtZEff=   0.0000000   0.0000000   0.0000000   0.0000000   0.0000000   0.0000000   0.0000000   0.0000000   0.0000000   0.0000000
 NQMom=   31.3000000   0.0000000   0.0000000   0.0000000   0.0000000   0.0000000   0.0000000   0.0000000   0.0000000   0.0000000
 NMagM=    2.1063990   0.0000000   2.7928460   2.7928460   0.0000000   2.7928460   2.7928460   0.0000000   2.7928460   2.7928460
 AtZNuc=  35.0000000   8.0000000   1.0000000   1.0000000   8.0000000   1.0000000   1.0000000   8.0000000   1.0000000   1.0000000

  Atom        11          12          13          14          15          16          17          18          19          20
 IAtWgt=          16           1           1          16           1           1          16           1           1          16
 AtmWgt=  15.9949146   1.0078250   1.0078250  15.9949146   1.0078250   1.0078250  15.9949146   1.0078250   1.0078250  15.9949146
 NucSpn=           0           1           1           0           1           1           0           1           1           0
 AtZEff=   0.0000000   0.0000000   0.0000000   0.0000000   0.0000000   0.0000000   0.0000000   0.0000000   0.0000000   0.0000000
 NQMom=    0.0000000   0.0000000   0.0000000   0.0000000   0.0000000   0.0000000   0.0000000   0.0000000   0.0000000   0.0000000
 NMagM=    0.0000000   2.7928460   2.7928460   0.0000000   2.7928460   2.7928460   0.0000000   2.7928460   2.7928460   0.0000000
 AtZNuc=   8.0000000   1.0000000   1.0000000   8.0000000   1.0000000   1.0000000   8.0000000   1.0000000   1.0000000   8.0000000

  Atom        21          22          23          24          25          26          27          28          29          30
 IAtWgt=           1           1          16           1           1          16           1           1          16           1
 AtmWgt=   1.0078250   1.0078250  15.9949146   1.0078250   1.0078250  15.9949146   1.0078250   1.0078250  15.9949146   1.0078250
 NucSpn=           1           1           0           1           1           0           1           1           0           1
 AtZEff=   0.0000000   0.0000000   0.0000000   0.0000000   0.0000000   0.0000000   0.0000000   0.0000000   0.0000000   0.0000000
 NQMom=    0.0000000   0.0000000   0.0000000   0.0000000   0.0000000   0.0000000   0.0000000   0.0000000   0.0000000   0.0000000
 NMagM=    2.7928460   2.7928460   0.0000000   2.7928460   2.7928460   0.0000000   2.7928460   2.7928460   0.0000000   2.7928460
 AtZNuc=   1.0000000   1.0000000   8.0000000   1.0000000   1.0000000   8.0000000   1.0000000   1.0000000   8.0000000   1.0000000

  Atom        31          32          33          34          35          36          37          38          39          40
 IAtWgt=           1          16           1           1          16           1           1          16           1           1
 AtmWgt=   1.0078250  15.9949146   1.0078250   1.0078250  15.9949146   1.0078250   1.0078250  15.9949146   1.0078250   1.0078250
 NucSpn=           1           0           1           1           0           1           1           0           1           1
 AtZEff=   0.0000000   0.0000000   0.0000000   0.0000000   0.0000000   0.0000000   0.0000000   0.0000000   0.0000000   0.0000000
 NQMom=    0.0000000   0.0000000   0.0000000   0.0000000   0.0000000   0.0000000   0.0000000   0.0000000   0.0000000   0.0000000
 NMagM=    2.7928460   0.0000000   2.7928460   2.7928460   0.0000000   2.7928460   2.7928460   0.0000000   2.7928460   2.7928460
 AtZNuc=   1.0000000   8.0000000   1.0000000   1.0000000   8.0000000   1.0000000   1.0000000   8.0000000   1.0000000   1.0000000

  Atom        41          42          43          44          45          46          47          48          49          50
 IAtWgt=          16           1           1          16           1           1          16           1           1          16
 AtmWgt=  15.9949146   1.0078250   1.0078250  15.9949146   1.0078250   1.0078250  15.9949146   1.0078250   1.0078250  15.9949146
 NucSpn=           0           1           1           0           1           1           0           1           1           0
 AtZEff=   0.0000000   0.0000000   0.0000000   0.0000000   0.0000000   0.0000000   0.0000000   0.0000000   0.0000000   0.0000000
 NQMom=    0.0000000   0.0000000   0.0000000   0.0000000   0.0000000   0.0000000   0.0000000   0.0000000   0.0000000   0.0000000
 NMagM=    0.0000000   2.7928460   2.7928460   0.0000000   2.7928460   2.7928460   0.0000000   2.7928460   2.7928460   0.0000000
 AtZNuc=   8.0000000   1.0000000   1.0000000   8.0000000   1.0000000   1.0000000   8.0000000   1.0000000   1.0000000   8.0000000

  Atom        51          52          53          54          55          56          57          58          59          60
 IAtWgt=           1           1          16           1           1          16           1           1          16           1
 AtmWgt=   1.0078250   1.0078250  15.9949146   1.0078250   1.0078250  15.9949146   1.0078250   1.0078250  15.9949146   1.0078250
 NucSpn=           1           1           0           1           1           0           1           1           0           1
 AtZEff=   0.0000000   0.0000000   0.0000000   0.0000000   0.0000000   0.0000000   0.0000000   0.0000000   0.0000000   0.0000000
 NQMom=    0.0000000   0.0000000   0.0000000   0.0000000   0.0000000   0.0000000   0.0000000   0.0000000   0.0000000   0.0000000
 NMagM=    2.7928460   2.7928460   0.0000000   2.7928460   2.7928460   0.0000000   2.7928460   2.7928460   0.0000000   2.7928460
 AtZNuc=   1.0000000   1.0000000   8.0000000   1.0000000   1.0000000   8.0000000   1.0000000   1.0000000   8.0000000   1.0000000

  Atom        61          62          63          64          65          66          67          68          69          70
 IAtWgt=           1          16           1           1          16           1           1          16           1           1
 AtmWgt=   1.0078250  15.9949146   1.0078250   1.0078250  15.9949146   1.0078250   1.0078250  15.9949146   1.0078250   1.0078250
 NucSpn=           1           0           1           1           0           1           1           0           1           1
 AtZEff=   0.0000000   0.0000000   0.0000000   0.0000000   0.0000000   0.0000000   0.0000000   0.0000000   0.0000000   0.0000000
 NQMom=    0.0000000   0.0000000   0.0000000   0.0000000   0.0000000   0.0000000   0.0000000   0.0000000   0.0000000   0.0000000
 NMagM=    2.7928460   0.0000000   2.7928460   2.7928460   0.0000000   2.7928460   2.7928460   0.0000000   2.7928460   2.7928460
 AtZNuc=   1.0000000   8.0000000   1.0000000   1.0000000   8.0000000   1.0000000   1.0000000   8.0000000   1.0000000   1.0000000

  Atom        71          72          73          74          75          76          77          78          79          80
 IAtWgt=          16           1           1          16           1           1          16           1           1          16
 AtmWgt=  15.9949146   1.0078250   1.0078250  15.9949146   1.0078250   1.0078250  15.9949146   1.0078250   1.0078250  15.9949146
 NucSpn=           0           1           1           0           1           1           0           1           1           0
 AtZEff=   0.0000000   0.0000000   0.0000000   0.0000000   0.0000000   0.0000000   0.0000000   0.0000000   0.0000000   0.0000000
 NQMom=    0.0000000   0.0000000   0.0000000   0.0000000   0.0000000   0.0000000   0.0000000   0.0000000   0.0000000   0.0000000
 NMagM=    0.0000000   2.7928460   2.7928460   0.0000000   2.7928460   2.7928460   0.0000000   2.7928460   2.7928460   0.0000000
 AtZNuc=   8.0000000   1.0000000   1.0000000   8.0000000   1.0000000   1.0000000   8.0000000   1.0000000   1.0000000   8.0000000

  Atom        81          82          83          84          85          86          87          88          89          90
 IAtWgt=           1           1          16           1           1          16           1           1          16           1
 AtmWgt=   1.0078250   1.0078250  15.9949146   1.0078250   1.0078250  15.9949146   1.0078250   1.0078250  15.9949146   1.0078250
 NucSpn=           1           1           0           1           1           0           1           1           0           1
 AtZEff=   0.0000000   0.0000000   0.0000000   0.0000000   0.0000000   0.0000000   0.0000000   0.0000000   0.0000000   0.0000000
 NQMom=    0.0000000   0.0000000   0.0000000   0.0000000   0.0000000   0.0000000   0.0000000   0.0000000   0.0000000   0.0000000
 NMagM=    2.7928460   2.7928460   0.0000000   2.7928460   2.7928460   0.0000000   2.7928460   2.7928460   0.0000000   2.7928460
 AtZNuc=   1.0000000   1.0000000   8.0000000   1.0000000   1.0000000   8.0000000   1.0000000   1.0000000   8.0000000   1.0000000

  Atom        91          92          93          94          95          96          97          98          99         100
 IAtWgt=           1          16           1           1          16           1           1          16           1           1
 AtmWgt=   1.0078250  15.9949146   1.0078250   1.0078250  15.9949146   1.0078250   1.0078250  15.9949146   1.0078250   1.0078250
 NucSpn=           1           0           1           1           0           1           1           0           1           1
 AtZEff=   0.0000000   0.0000000   0.0000000   0.0000000   0.0000000   0.0000000   0.0000000   0.0000000   0.0000000   0.0000000
 NQMom=    0.0000000   0.0000000   0.0000000   0.0000000   0.0000000   0.0000000   0.0000000   0.0000000   0.0000000   0.0000000
 NMagM=    2.7928460   0.0000000   2.7928460   2.7928460   0.0000000   2.7928460   2.7928460   0.0000000   2.7928460   2.7928460
 AtZNuc=   1.0000000   8.0000000   1.0000000   1.0000000   8.0000000   1.0000000   1.0000000   8.0000000   1.0000000   1.0000000

  Atom       101         102         103         104         105         106         107         108         109         110
 IAtWgt=          16           1           1          16           1           1          16           1           1          16
 AtmWgt=  15.9949146   1.0078250   1.0078250  15.9949146   1.0078250   1.0078250  15.9949146   1.0078250   1.0078250  15.9949146
 NucSpn=           0           1           1           0           1           1           0           1           1           0
 AtZEff=   0.0000000   0.0000000   0.0000000   0.0000000   0.0000000   0.0000000   0.0000000   0.0000000   0.0000000   0.0000000
 NQMom=    0.0000000   0.0000000   0.0000000   0.0000000   0.0000000   0.0000000   0.0000000   0.0000000   0.0000000   0.0000000
 NMagM=    0.0000000   2.7928460   2.7928460   0.0000000   2.7928460   2.7928460   0.0000000   2.7928460   2.7928460   0.0000000
 AtZNuc=   8.0000000   1.0000000   1.0000000   8.0000000   1.0000000   1.0000000   8.0000000   1.0000000   1.0000000   8.0000000

  Atom       111         112         113         114         115         116         117         118         119         120
 IAtWgt=           1           1          16           1           1          16           1           1          16           1
 AtmWgt=   1.0078250   1.0078250  15.9949146   1.0078250   1.0078250  15.9949146   1.0078250   1.0078250  15.9949146   1.0078250
 NucSpn=           1           1           0           1           1           0           1           1           0           1
 AtZEff=   0.0000000   0.0000000   0.0000000   0.0000000   0.0000000   0.0000000   0.0000000   0.0000000   0.0000000   0.0000000
 NQMom=    0.0000000   0.0000000   0.0000000   0.0000000   0.0000000   0.0000000   0.0000000   0.0000000   0.0000000   0.0000000
 NMagM=    2.7928460   2.7928460   0.0000000   2.7928460   2.7928460   0.0000000   2.7928460   2.7928460   0.0000000   2.7928460
 AtZNuc=   1.0000000   1.0000000   8.0000000   1.0000000   1.0000000   8.0000000   1.0000000   1.0000000   8.0000000   1.0000000

  Atom       121         122         123         124         125         126         127         128         129         130
 IAtWgt=           1          16           1           1          16           1           1          16           1           1
 AtmWgt=   1.0078250  15.9949146   1.0078250   1.0078250  15.9949146   1.0078250   1.0078250  15.9949146   1.0078250   1.0078250
 NucSpn=           1           0           1           1           0           1           1           0           1           1
 AtZEff=   0.0000000   0.0000000   0.0000000   0.0000000   0.0000000   0.0000000   0.0000000   0.0000000   0.0000000   0.0000000
 NQMom=    0.0000000   0.0000000   0.0000000   0.0000000   0.0000000   0.0000000   0.0000000   0.0000000   0.0000000   0.0000000
 NMagM=    2.7928460   0.0000000   2.7928460   2.7928460   0.0000000   2.7928460   2.7928460   0.0000000   2.7928460   2.7928460
 AtZNuc=   1.0000000   8.0000000   1.0000000   1.0000000   8.0000000   1.0000000   1.0000000   8.0000000   1.0000000   1.0000000

  Atom       131         132         133         134         135         136         137         138         139         140
 IAtWgt=          16           1           1          16           1           1          16           1           1          16
 AtmWgt=  15.9949146   1.0078250   1.0078250  15.9949146   1.0078250   1.0078250  15.9949146   1.0078250   1.0078250  15.9949146
 NucSpn=           0           1           1           0           1           1           0           1           1           0
 AtZEff=   0.0000000   0.0000000   0.0000000   0.0000000   0.0000000   0.0000000   0.0000000   0.0000000   0.0000000   0.0000000
 NQMom=    0.0000000   0.0000000   0.0000000   0.0000000   0.0000000   0.0000000   0.0000000   0.0000000   0.0000000   0.0000000
 NMagM=    0.0000000   2.7928460   2.7928460   0.0000000   2.7928460   2.7928460   0.0000000   2.7928460   2.7928460   0.0000000
 AtZNuc=   8.0000000   1.0000000   1.0000000   8.0000000   1.0000000   1.0000000   8.0000000   1.0000000   1.0000000   8.0000000

  Atom       141         142         143         144         145         146         147         148         149         150
 IAtWgt=           1           1          16           1           1          16           1           1          16           1
 AtmWgt=   1.0078250   1.0078250  15.9949146   1.0078250   1.0078250  15.9949146   1.0078250   1.0078250  15.9949146   1.0078250
 NucSpn=           1           1           0           1           1           0           1           1           0           1
 AtZEff=   0.0000000   0.0000000   0.0000000   0.0000000   0.0000000   0.0000000   0.0000000   0.0000000   0.0000000   0.0000000
 NQMom=    0.0000000   0.0000000   0.0000000   0.0000000   0.0000000   0.0000000   0.0000000   0.0000000   0.0000000   0.0000000
 NMagM=    2.7928460   2.7928460   0.0000000   2.7928460   2.7928460   0.0000000   2.7928460   2.7928460   0.0000000   2.7928460
 AtZNuc=   1.0000000   1.0000000   8.0000000   1.0000000   1.0000000   8.0000000   1.0000000   1.0000000   8.0000000   1.0000000

  Atom       151         152         153         154         155         156         157         158         159         160
 IAtWgt=           1          16           1           1          16           1           1          16           1           1
 AtmWgt=   1.0078250  15.9949146   1.0078250   1.0078250  15.9949146   1.0078250   1.0078250  15.9949146   1.0078250   1.0078250
 NucSpn=           1           0           1           1           0           1           1           0           1           1
 AtZEff=   0.0000000   0.0000000   0.0000000   0.0000000   0.0000000   0.0000000   0.0000000   0.0000000   0.0000000   0.0000000
 NQMom=    0.0000000   0.0000000   0.0000000   0.0000000   0.0000000   0.0000000   0.0000000   0.0000000   0.0000000   0.0000000
 NMagM=    2.7928460   0.0000000   2.7928460   2.7928460   0.0000000   2.7928460   2.7928460   0.0000000   2.7928460   2.7928460
 AtZNuc=   1.0000000   8.0000000   1.0000000   1.0000000   8.0000000   1.0000000   1.0000000   8.0000000   1.0000000   1.0000000

  Atom       161         162         163         164         165         166         167         168         169         170
 IAtWgt=          16           1           1          16           1           1          16           1           1          16
 AtmWgt=  15.9949146   1.0078250   1.0078250  15.9949146   1.0078250   1.0078250  15.9949146   1.0078250   1.0078250  15.9949146
 NucSpn=           0           1           1           0           1           1           0           1           1           0
 AtZEff=   0.0000000   0.0000000   0.0000000   0.0000000   0.0000000   0.0000000   0.0000000   0.0000000   0.0000000   0.0000000
 NQMom=    0.0000000   0.0000000   0.0000000   0.0000000   0.0000000   0.0000000   0.0000000   0.0000000   0.0000000   0.0000000
 NMagM=    0.0000000   2.7928460   2.7928460   0.0000000   2.7928460   2.7928460   0.0000000   2.7928460   2.7928460   0.0000000
 AtZNuc=   8.0000000   1.0000000   1.0000000   8.0000000   1.0000000   1.0000000   8.0000000   1.0000000   1.0000000   8.0000000

  Atom       171         172         173         174         175         176         177         178         179         180
 IAtWgt=           1           1          16           1           1          16           1           1          16           1
 AtmWgt=   1.0078250   1.0078250  15.9949146   1.0078250   1.0078250  15.9949146   1.0078250   1.0078250  15.9949146   1.0078250
 NucSpn=           1           1           0           1           1           0           1           1           0           1
 AtZEff=   0.0000000   0.0000000   0.0000000   0.0000000   0.0000000   0.0000000   0.0000000   0.0000000   0.0000000   0.0000000
 NQMom=    0.0000000   0.0000000   0.0000000   0.0000000   0.0000000   0.0000000   0.0000000   0.0000000   0.0000000   0.0000000
 NMagM=    2.7928460   2.7928460   0.0000000   2.7928460   2.7928460   0.0000000   2.7928460   2.7928460   0.0000000   2.7928460
 AtZNuc=   1.0000000   1.0000000   8.0000000   1.0000000   1.0000000   8.0000000   1.0000000   1.0000000   8.0000000   1.0000000

  Atom       181         182         183         184         185         186         187         188         189         190
 IAtWgt=           1          16           1           1          16           1           1          16           1           1
 AtmWgt=   1.0078250  15.9949146   1.0078250   1.0078250  15.9949146   1.0078250   1.0078250  15.9949146   1.0078250   1.0078250
 NucSpn=           1           0           1           1           0           1           1           0           1           1
 AtZEff=   0.0000000   0.0000000   0.0000000   0.0000000   0.0000000   0.0000000   0.0000000   0.0000000   0.0000000   0.0000000
 NQMom=    0.0000000   0.0000000   0.0000000   0.0000000   0.0000000   0.0000000   0.0000000   0.0000000   0.0000000   0.0000000
 NMagM=    2.7928460   0.0000000   2.7928460   2.7928460   0.0000000   2.7928460   2.7928460   0.0000000   2.7928460   2.7928460
 AtZNuc=   1.0000000   8.0000000   1.0000000   1.0000000   8.0000000   1.0000000   1.0000000   8.0000000   1.0000000   1.0000000

  Atom       191         192         193         194         195         196         197         198         199         200
 IAtWgt=          16           1           1          16           1           1          16           1           1          16
 AtmWgt=  15.9949146   1.0078250   1.0078250  15.9949146   1.0078250   1.0078250  15.9949146   1.0078250   1.0078250  15.9949146
 NucSpn=           0           1           1           0           1           1           0           1           1           0
 AtZEff=   0.0000000   0.0000000   0.0000000   0.0000000   0.0000000   0.0000000   0.0000000   0.0000000   0.0000000   0.0000000
 NQMom=    0.0000000   0.0000000   0.0000000   0.0000000   0.0000000   0.0000000   0.0000000   0.0000000   0.0000000   0.0000000
 NMagM=    0.0000000   2.7928460   2.7928460   0.0000000   2.7928460   2.7928460   0.0000000   2.7928460   2.7928460   0.0000000
 AtZNuc=   8.0000000   1.0000000   1.0000000   8.0000000   1.0000000   1.0000000   8.0000000   1.0000000   1.0000000   8.0000000

  Atom       201         202         203         204         205         206         207         208         209         210
 IAtWgt=           1           1          16           1           1          16           1           1          16           1
 AtmWgt=   1.0078250   1.0078250  15.9949146   1.0078250   1.0078250  15.9949146   1.0078250   1.0078250  15.9949146   1.0078250
 NucSpn=           1           1           0           1           1           0           1           1           0           1
 AtZEff=   0.0000000   0.0000000   0.0000000   0.0000000   0.0000000   0.0000000   0.0000000   0.0000000   0.0000000   0.0000000
 NQMom=    0.0000000   0.0000000   0.0000000   0.0000000   0.0000000   0.0000000   0.0000000   0.0000000   0.0000000   0.0000000
 NMagM=    2.7928460   2.7928460   0.0000000   2.7928460   2.7928460   0.0000000   2.7928460   2.7928460   0.0000000   2.7928460
 AtZNuc=   1.0000000   1.0000000   8.0000000   1.0000000   1.0000000   8.0000000   1.0000000   1.0000000   8.0000000   1.0000000

  Atom       211         212         213         214         215         216         217         218         219         220
 IAtWgt=           1          16           1           1          16           1           1          16           1           1
 AtmWgt=   1.0078250  15.9949146   1.0078250   1.0078250  15.9949146   1.0078250   1.0078250  15.9949146   1.0078250   1.0078250
 NucSpn=           1           0           1           1           0           1           1           0           1           1
 AtZEff=   0.0000000   0.0000000   0.0000000   0.0000000   0.0000000   0.0000000   0.0000000   0.0000000   0.0000000   0.0000000
 NQMom=    0.0000000   0.0000000   0.0000000   0.0000000   0.0000000   0.0000000   0.0000000   0.0000000   0.0000000   0.0000000
 NMagM=    2.7928460   0.0000000   2.7928460   2.7928460   0.0000000   2.7928460   2.7928460   0.0000000   2.7928460   2.7928460
 AtZNuc=   1.0000000   8.0000000   1.0000000   1.0000000   8.0000000   1.0000000   1.0000000   8.0000000   1.0000000   1.0000000

  Atom       221         222         223         224         225         226         227         228         229         230
 IAtWgt=          16           1           1          16           1           1          16           1           1          16
 AtmWgt=  15.9949146   1.0078250   1.0078250  15.9949146   1.0078250   1.0078250  15.9949146   1.0078250   1.0078250  15.9949146
 NucSpn=           0           1           1           0           1           1           0           1           1           0
 AtZEff=   0.0000000   0.0000000   0.0000000   0.0000000   0.0000000   0.0000000   0.0000000   0.0000000   0.0000000   0.0000000
 NQMom=    0.0000000   0.0000000   0.0000000   0.0000000   0.0000000   0.0000000   0.0000000   0.0000000   0.0000000   0.0000000
 NMagM=    0.0000000   2.7928460   2.7928460   0.0000000   2.7928460   2.7928460   0.0000000   2.7928460   2.7928460   0.0000000
 AtZNuc=   8.0000000   1.0000000   1.0000000   8.0000000   1.0000000   1.0000000   8.0000000   1.0000000   1.0000000   8.0000000

  Atom       231         232         233         234         235         236         237         238         239         240
 IAtWgt=           1           1          16           1           1          16           1           1          16           1
 AtmWgt=   1.0078250   1.0078250  15.9949146   1.0078250   1.0078250  15.9949146   1.0078250   1.0078250  15.9949146   1.0078250
 NucSpn=           1           1           0           1           1           0           1           1           0           1
 AtZEff=   0.0000000   0.0000000   0.0000000   0.0000000   0.0000000   0.0000000   0.0000000   0.0000000   0.0000000   0.0000000
 NQMom=    0.0000000   0.0000000   0.0000000   0.0000000   0.0000000   0.0000000   0.0000000   0.0000000   0.0000000   0.0000000
 NMagM=    2.7928460   2.7928460   0.0000000   2.7928460   2.7928460   0.0000000   2.7928460   2.7928460   0.0000000   2.7928460
 AtZNuc=   1.0000000   1.0000000   8.0000000   1.0000000   1.0000000   8.0000000   1.0000000   1.0000000   8.0000000   1.0000000

  Atom       241         242         243         244         245         246         247         248         249         250
 IAtWgt=           1          16           1           1          16           1           1          16           1           1
 AtmWgt=   1.0078250  15.9949146   1.0078250   1.0078250  15.9949146   1.0078250   1.0078250  15.9949146   1.0078250   1.0078250
 NucSpn=           1           0           1           1           0           1           1           0           1           1
 AtZEff=   0.0000000   0.0000000   0.0000000   0.0000000   0.0000000   0.0000000   0.0000000   0.0000000   0.0000000   0.0000000
 NQMom=    0.0000000   0.0000000   0.0000000   0.0000000   0.0000000   0.0000000   0.0000000   0.0000000   0.0000000   0.0000000
 NMagM=    2.7928460   0.0000000   2.7928460   2.7928460   0.0000000   2.7928460   2.7928460   0.0000000   2.7928460   2.7928460
 AtZNuc=   1.0000000   8.0000000   1.0000000   1.0000000   8.0000000   1.0000000   1.0000000   8.0000000   1.0000000   1.0000000

  Atom       251         252         253         254         255         256         257         258         259         260
 IAtWgt=          16           1           1          16           1           1          16           1           1          16
 AtmWgt=  15.9949146   1.0078250   1.0078250  15.9949146   1.0078250   1.0078250  15.9949146   1.0078250   1.0078250  15.9949146
 NucSpn=           0           1           1           0           1           1           0           1           1           0
 AtZEff=   0.0000000   0.0000000   0.0000000   0.0000000   0.0000000   0.0000000   0.0000000   0.0000000   0.0000000   0.0000000
 NQMom=    0.0000000   0.0000000   0.0000000   0.0000000   0.0000000   0.0000000   0.0000000   0.0000000   0.0000000   0.0000000
 NMagM=    0.0000000   2.7928460   2.7928460   0.0000000   2.7928460   2.7928460   0.0000000   2.7928460   2.7928460   0.0000000
 AtZNuc=   8.0000000   1.0000000   1.0000000   8.0000000   1.0000000   1.0000000   8.0000000   1.0000000   1.0000000   8.0000000

  Atom       261         262         263         264         265         266         267         268         269         270
 IAtWgt=           1           1          16           1           1          16           1           1          16           1
 AtmWgt=   1.0078250   1.0078250  15.9949146   1.0078250   1.0078250  15.9949146   1.0078250   1.0078250  15.9949146   1.0078250
 NucSpn=           1           1           0           1           1           0           1           1           0           1
 AtZEff=   0.0000000   0.0000000   0.0000000   0.0000000   0.0000000   0.0000000   0.0000000   0.0000000   0.0000000   0.0000000
 NQMom=    0.0000000   0.0000000   0.0000000   0.0000000   0.0000000   0.0000000   0.0000000   0.0000000   0.0000000   0.0000000
 NMagM=    2.7928460   2.7928460   0.0000000   2.7928460   2.7928460   0.0000000   2.7928460   2.7928460   0.0000000   2.7928460
 AtZNuc=   1.0000000   1.0000000   8.0000000   1.0000000   1.0000000   8.0000000   1.0000000   1.0000000   8.0000000   1.0000000

  Atom       271         272         273         274         275         276         277         278         279         280
 IAtWgt=           1          16           1           1          16           1           1          16           1           1
 AtmWgt=   1.0078250  15.9949146   1.0078250   1.0078250  15.9949146   1.0078250   1.0078250  15.9949146   1.0078250   1.0078250
 NucSpn=           1           0           1           1           0           1           1           0           1           1
 AtZEff=   0.0000000   0.0000000   0.0000000   0.0000000   0.0000000   0.0000000   0.0000000   0.0000000   0.0000000   0.0000000
 NQMom=    0.0000000   0.0000000   0.0000000   0.0000000   0.0000000   0.0000000   0.0000000   0.0000000   0.0000000   0.0000000
 NMagM=    2.7928460   0.0000000   2.7928460   2.7928460   0.0000000   2.7928460   2.7928460   0.0000000   2.7928460   2.7928460
 AtZNuc=   1.0000000   8.0000000   1.0000000   1.0000000   8.0000000   1.0000000   1.0000000   8.0000000   1.0000000   1.0000000

  Atom       281         282         283         284         285         286         287         288         289         290
 IAtWgt=          16           1           1          16           1           1          16           1           1          16
 AtmWgt=  15.9949146   1.0078250   1.0078250  15.9949146   1.0078250   1.0078250  15.9949146   1.0078250   1.0078250  15.9949146
 NucSpn=           0           1           1           0           1           1           0           1           1           0
 AtZEff=   0.0000000   0.0000000   0.0000000   0.0000000   0.0000000   0.0000000   0.0000000   0.0000000   0.0000000   0.0000000
 NQMom=    0.0000000   0.0000000   0.0000000   0.0000000   0.0000000   0.0000000   0.0000000   0.0000000   0.0000000   0.0000000
 NMagM=    0.0000000   2.7928460   2.7928460   0.0000000   2.7928460   2.7928460   0.0000000   2.7928460   2.7928460   0.0000000
 AtZNuc=   8.0000000   1.0000000   1.0000000   8.0000000   1.0000000   1.0000000   8.0000000   1.0000000   1.0000000   8.0000000

  Atom       291         292         293         294         295         296         297         298         299         300
 IAtWgt=           1           1          16           1           1          16           1           1          16           1
 AtmWgt=   1.0078250   1.0078250  15.9949146   1.0078250   1.0078250  15.9949146   1.0078250   1.0078250  15.9949146   1.0078250
 NucSpn=           1           1           0           1           1           0           1           1           0           1
 AtZEff=   0.0000000   0.0000000   0.0000000   0.0000000   0.0000000   0.0000000   0.0000000   0.0000000   0.0000000   0.0000000
 NQMom=    0.0000000   0.0000000   0.0000000   0.0000000   0.0000000   0.0000000   0.0000000   0.0000000   0.0000000   0.0000000
 NMagM=    2.7928460   2.7928460   0.0000000   2.7928460   2.7928460   0.0000000   2.7928460   2.7928460   0.0000000   2.7928460
 AtZNuc=   1.0000000   1.0000000   8.0000000   1.0000000   1.0000000   8.0000000   1.0000000   1.0000000   8.0000000   1.0000000

  Atom       301         302         303         304         305         306         307         308         309         310
 IAtWgt=           1          16           1           1          16           1           1          16           1           1
 AtmWgt=   1.0078250  15.9949146   1.0078250   1.0078250  15.9949146   1.0078250   1.0078250  15.9949146   1.0078250   1.0078250
 NucSpn=           1           0           1           1           0           1           1           0           1           1
 AtZEff=   0.0000000   0.0000000   0.0000000   0.0000000   0.0000000   0.0000000   0.0000000   0.0000000   0.0000000   0.0000000
 NQMom=    0.0000000   0.0000000   0.0000000   0.0000000   0.0000000   0.0000000   0.0000000   0.0000000   0.0000000   0.0000000
 NMagM=    2.7928460   0.0000000   2.7928460   2.7928460   0.0000000   2.7928460   2.7928460   0.0000000   2.7928460   2.7928460
 AtZNuc=   1.0000000   8.0000000   1.0000000   1.0000000   8.0000000   1.0000000   1.0000000   8.0000000   1.0000000   1.0000000

  Atom       311         312         313         314         315         316         317         318         319         320
 IAtWgt=          16           1           1          16           1           1          16           1           1          16
 AtmWgt=  15.9949146   1.0078250   1.0078250  15.9949146   1.0078250   1.0078250  15.9949146   1.0078250   1.0078250  15.9949146
 NucSpn=           0           1           1           0           1           1           0           1           1           0
 AtZEff=   0.0000000   0.0000000   0.0000000   0.0000000   0.0000000   0.0000000   0.0000000   0.0000000   0.0000000   0.0000000
 NQMom=    0.0000000   0.0000000   0.0000000   0.0000000   0.0000000   0.0000000   0.0000000   0.0000000   0.0000000   0.0000000
 NMagM=    0.0000000   2.7928460   2.7928460   0.0000000   2.7928460   2.7928460   0.0000000   2.7928460   2.7928460   0.0000000
 AtZNuc=   8.0000000   1.0000000   1.0000000   8.0000000   1.0000000   1.0000000   8.0000000   1.0000000   1.0000000   8.0000000

  Atom       321         322         323         324         325         326         327         328         329         330
 IAtWgt=           1           1          16           1           1          16           1           1          16           1
 AtmWgt=   1.0078250   1.0078250  15.9949146   1.0078250   1.0078250  15.9949146   1.0078250   1.0078250  15.9949146   1.0078250
 NucSpn=           1           1           0           1           1           0           1           1           0           1
 AtZEff=   0.0000000   0.0000000   0.0000000   0.0000000   0.0000000   0.0000000   0.0000000   0.0000000   0.0000000   0.0000000
 NQMom=    0.0000000   0.0000000   0.0000000   0.0000000   0.0000000   0.0000000   0.0000000   0.0000000   0.0000000   0.0000000
 NMagM=    2.7928460   2.7928460   0.0000000   2.7928460   2.7928460   0.0000000   2.7928460   2.7928460   0.0000000   2.7928460
 AtZNuc=   1.0000000   1.0000000   8.0000000   1.0000000   1.0000000   8.0000000   1.0000000   1.0000000   8.0000000   1.0000000

  Atom       331         332         333         334         335         336         337         338         339         340
 IAtWgt=           1          16           1           1          16           1           1          16           1           1
 AtmWgt=   1.0078250  15.9949146   1.0078250   1.0078250  15.9949146   1.0078250   1.0078250  15.9949146   1.0078250   1.0078250
 NucSpn=           1           0           1           1           0           1           1           0           1           1
 AtZEff=   0.0000000   0.0000000   0.0000000   0.0000000   0.0000000   0.0000000   0.0000000   0.0000000   0.0000000   0.0000000
 NQMom=    0.0000000   0.0000000   0.0000000   0.0000000   0.0000000   0.0000000   0.0000000   0.0000000   0.0000000   0.0000000
 NMagM=    2.7928460   0.0000000   2.7928460   2.7928460   0.0000000   2.7928460   2.7928460   0.0000000   2.7928460   2.7928460
 AtZNuc=   1.0000000   8.0000000   1.0000000   1.0000000   8.0000000   1.0000000   1.0000000   8.0000000   1.0000000   1.0000000

  Atom       341         342         343         344         345         346         347         348         349         350
 IAtWgt=          16           1           1          16           1           1          16           1           1          16
 AtmWgt=  15.9949146   1.0078250   1.0078250  15.9949146   1.0078250   1.0078250  15.9949146   1.0078250   1.0078250  15.9949146
 NucSpn=           0           1           1           0           1           1           0           1           1           0
 AtZEff=   0.0000000   0.0000000   0.0000000   0.0000000   0.0000000   0.0000000   0.0000000   0.0000000   0.0000000   0.0000000
 NQMom=    0.0000000   0.0000000   0.0000000   0.0000000   0.0000000   0.0000000   0.0000000   0.0000000   0.0000000   0.0000000
 NMagM=    0.0000000   2.7928460   2.7928460   0.0000000   2.7928460   2.7928460   0.0000000   2.7928460   2.7928460   0.0000000
 AtZNuc=   8.0000000   1.0000000   1.0000000   8.0000000   1.0000000   1.0000000   8.0000000   1.0000000   1.0000000   8.0000000

  Atom       351         352         353         354         355         356         357         358         359         360
 IAtWgt=           1           1          16           1           1          16           1           1          16           1
 AtmWgt=   1.0078250   1.0078250  15.9949146   1.0078250   1.0078250  15.9949146   1.0078250   1.0078250  15.9949146   1.0078250
 NucSpn=           1           1           0           1           1           0           1           1           0           1
 AtZEff=   0.0000000   0.0000000   0.0000000   0.0000000   0.0000000   0.0000000   0.0000000   0.0000000   0.0000000   0.0000000
 NQMom=    0.0000000   0.0000000   0.0000000   0.0000000   0.0000000   0.0000000   0.0000000   0.0000000   0.0000000   0.0000000
 NMagM=    2.7928460   2.7928460   0.0000000   2.7928460   2.7928460   0.0000000   2.7928460   2.7928460   0.0000000   2.7928460
 AtZNuc=   1.0000000   1.0000000   8.0000000   1.0000000   1.0000000   8.0000000   1.0000000   1.0000000   8.0000000   1.0000000

  Atom       361         362         363         364         365         366         367         368         369         370
 IAtWgt=           1          16           1           1          16           1           1          16           1           1
 AtmWgt=   1.0078250  15.9949146   1.0078250   1.0078250  15.9949146   1.0078250   1.0078250  15.9949146   1.0078250   1.0078250
 NucSpn=           1           0           1           1           0           1           1           0           1           1
 AtZEff=   0.0000000   0.0000000   0.0000000   0.0000000   0.0000000   0.0000000   0.0000000   0.0000000   0.0000000   0.0000000
 NQMom=    0.0000000   0.0000000   0.0000000   0.0000000   0.0000000   0.0000000   0.0000000   0.0000000   0.0000000   0.0000000
 NMagM=    2.7928460   0.0000000   2.7928460   2.7928460   0.0000000   2.7928460   2.7928460   0.0000000   2.7928460   2.7928460
 AtZNuc=   1.0000000   8.0000000   1.0000000   1.0000000   8.0000000   1.0000000   1.0000000   8.0000000   1.0000000   1.0000000

  Atom       371         372         373         374         375         376         377         378         379         380
 IAtWgt=          16           1           1          16           1           1          16           1           1          16
 AtmWgt=  15.9949146   1.0078250   1.0078250  15.9949146   1.0078250   1.0078250  15.9949146   1.0078250   1.0078250  15.9949146
 NucSpn=           0           1           1           0           1           1           0           1           1           0
 AtZEff=   0.0000000   0.0000000   0.0000000   0.0000000   0.0000000   0.0000000   0.0000000   0.0000000   0.0000000   0.0000000
 NQMom=    0.0000000   0.0000000   0.0000000   0.0000000   0.0000000   0.0000000   0.0000000   0.0000000   0.0000000   0.0000000
 NMagM=    0.0000000   2.7928460   2.7928460   0.0000000   2.7928460   2.7928460   0.0000000   2.7928460   2.7928460   0.0000000
 AtZNuc=   8.0000000   1.0000000   1.0000000   8.0000000   1.0000000   1.0000000   8.0000000   1.0000000   1.0000000   8.0000000

  Atom       381         382         383         384         385
 IAtWgt=           1           1          16           1           1
 AtmWgt=   1.0078250   1.0078250  15.9949146   1.0078250   1.0078250
 NucSpn=           1           1           0           1           1
 AtZEff=   0.0000000   0.0000000   0.0000000   0.0000000   0.0000000
 NQMom=    0.0000000   0.0000000   0.0000000   0.0000000   0.0000000
 NMagM=    2.7928460   2.7928460   0.0000000   2.7928460   2.7928460
 AtZNuc=   1.0000000   1.0000000   8.0000000   1.0000000   1.0000000
 Leave Link  101 at Tue May 15 07:06:08 2018, MaxMem= 14763950080 cpu:        33.3
 (Enter /cm/shared/gaussian/g09.e01/intel64-sandybridge/g09/l103.exe)

 GradGradGradGradGradGradGradGradGradGradGradGradGradGradGradGradGradGrad
 Berny optimization.
 Initialization pass.
 Trust Radius=3.00D-01 FncErr=1.00D-07 GrdErr=1.00D-07
 Number of steps in this run=      2 maximum allowed number of steps=      2.
 GradGradGradGradGradGradGradGradGradGradGradGradGradGradGradGradGradGrad

 Leave Link  103 at Tue May 15 07:06:08 2018, MaxMem= 14763950080 cpu:         3.7
 (Enter /cm/shared/gaussian/g09.e01/intel64-sandybridge/g09/l202.exe)
 Symmetry turned off by external request.
 Stoichiometry    BrH256O128(1-)
 Framework group  C1[X(BrH256O128)]
 Deg. of freedom  1149
 Full point group                 C1      NOp   1
                          Input orientation:                          
 ---------------------------------------------------------------------
 Center     Atomic      Atomic             Coordinates (Angstroms)
 Number     Number       Type             X           Y           Z
 ---------------------------------------------------------------------
      1         35           0       20.000000   20.000000   20.000000
      2          8           0       18.140000   22.130000   18.340000
      3          1           0       18.530000   22.990000   18.480000
      4          1           0       18.710000   21.520000   18.810000
      5          8           0       23.230000   19.410000   19.580000
      6          1           0       22.330000   19.730000   19.680000
      7          1           0       23.410000   18.930000   20.380000
      8          8           0       21.230000   18.600000   17.290000
      9          1           0       20.520000   17.960000   17.220000
     10          1           0       20.930000   19.210000   17.960000
     11          8           0       20.470000   17.050000   21.540000
     12          1           0       20.060000   16.500000   20.870000
     13          1           0       20.430000   17.930000   21.180000
     14          8           0       20.740000   22.930000   21.580000
     15          1           0       20.140000   22.280000   21.210000
     16          1           0       21.050000   23.420000   20.820000
     17          8           0       17.520000   20.700000   22.420000
     18          1           0       17.920000   20.250000   21.670000
     19          1           0       16.580000   20.630000   22.270000
     20          8           0       21.160000   20.060000   23.500000
     21          1           0       20.630000   20.470000   24.190000
     22          1           0       20.540000   19.920000   22.780000
     23          8           0       18.490000   19.290000   16.220000
     24          1           0       17.770000   19.910000   16.140000
     25          1           0       18.940000   19.540000   17.030000
     26          8           0       22.450000   20.930000   16.500000
     27          1           0       23.180000   20.320000   16.610000
     28          1           0       21.670000   20.400000   16.690000
     29          8           0       23.580000   21.220000   22.160000
     30          1           0       23.520000   22.020000   22.680000
     31          1           0       22.810000   20.710000   22.410000
     32          8           0       19.460000   17.150000   24.150000
     33          1           0       18.830000   16.450000   23.950000
     34          1           0       19.780000   17.440000   23.290000
     35          8           0       23.170000   17.770000   21.980000
     36          1           0       23.300000   17.760000   22.920000
     37          1           0       22.460000   17.160000   21.820000
     38          8           0       18.030000   16.660000   16.920000
     39          1           0       18.700000   16.270000   16.360000
     40          1           0       18.090000   17.600000   16.760000
     41          8           0       19.480000   15.350000   19.500000
     42          1           0       18.850000   14.690000   19.790000
     43          1           0       19.080000   15.730000   18.710000
     44          8           0       24.820000   22.060000   19.830000
     45          1           0       25.010000   21.360000   19.210000
     46          1           0       24.220000   21.660000   20.470000
     47          8           0       24.450000   18.950000   17.000000
     48          1           0       24.500000   17.990000   17.040000
     49          1           0       23.900000   19.190000   17.750000
     50          8           0       21.910000   24.530000   19.600000
     51          1           0       22.680000   24.630000   20.150000
     52          1           0       22.180000   23.930000   18.910000
     53          8           0       19.360000   24.700000   18.960000
     54          1           0       18.910000   25.550000   19.030000
     55          1           0       20.270000   24.890000   19.200000
     56          8           0       23.830000   16.500000   18.500000
     57          1           0       23.070000   16.320000   19.040000
     58          1           0       24.490000   16.840000   19.110000
     59          8           0       22.860000   18.280000   24.520000
     60          1           0       22.200000   18.050000   25.170000
     61          1           0       22.530000   19.070000   24.100000
     62          8           0       18.850000   24.910000   22.630000
     63          1           0       19.290000   25.720000   22.390000
     64          1           0       19.520000   24.230000   22.520000
     65          8           0       20.780000   23.000000   15.150000
     66          1           0       21.150000   22.380000   15.780000
     67          1           0       20.960000   23.860000   15.530000
     68          8           0       22.260000   23.080000   24.440000
     69          1           0       21.580000   23.360000   25.050000
     70          1           0       21.800000   22.980000   23.600000
     71          8           0       14.680000   22.000000   18.760000
     72          1           0       15.620000   22.160000   18.850000
     73          1           0       14.540000   21.920000   17.820000
     74          8           0       15.220000   18.340000   22.320000
     75          1           0       14.810000   17.540000   21.970000
     76          1           0       15.250000   18.940000   21.580000
     77          8           0       23.100000   23.300000   17.280000
     78          1           0       24.020000   23.520000   17.420000
     79          1           0       23.130000   22.480000   16.790000
     80          8           0       16.050000   23.590000   21.820000
     81          1           0       15.560000   24.230000   21.310000
     82          1           0       16.970000   23.820000   21.670000
     83          8           0       16.450000   24.510000   17.870000
     84          1           0       15.920000   24.890000   18.560000
     85          1           0       16.690000   23.640000   18.210000
     86          8           0       19.560000   21.340000   25.160000
     87          1           0       19.920000   22.020000   25.740000
     88          1           0       18.750000   21.710000   24.820000
     89          8           0       17.340000   22.930000   24.560000
     90          1           0       16.980000   22.520000   23.760000
     91          1           0       17.720000   23.750000   24.260000
     92          8           0       16.260000   19.150000   24.800000
     93          1           0       17.170000   19.430000   24.660000
     94          1           0       15.970000   18.850000   23.940000
     95          8           0       17.990000   15.330000   22.520000
     96          1           0       17.540000   15.390000   21.680000
     97          1           0       18.790000   14.840000   22.320000
     98          8           0       14.520000   20.800000   21.570000
     99          1           0       14.880000   21.680000   21.680000
    100          1           0       14.540000   20.640000   20.620000
    101          8           0       22.140000   14.610000   20.280000
    102          1           0       21.190000   14.530000   20.190000
    103          1           0       22.310000   14.320000   21.180000
    104          8           0       20.470000   19.020000   26.060000
    105          1           0       19.950000   19.770000   25.770000
    106          1           0       20.340000   18.360000   25.380000
    107          8           0       15.550000   16.130000   17.690000
    108          1           0       15.430000   15.300000   17.240000
    109          1           0       16.410000   16.440000   17.390000
    110          8           0       14.430000   18.680000   19.450000
    111          1           0       14.730000   18.330000   18.610000
    112          1           0       13.640000   18.180000   19.660000
    113          8           0       25.550000   17.220000   20.700000
    114          1           0       26.120000   17.860000   21.150000
    115          1           0       24.800000   17.120000   21.280000
    116          8           0       25.850000   19.820000   23.320000
    117          1           0       25.220000   20.040000   22.640000
    118          1           0       25.500000   20.230000   24.120000
    119          8           0       23.130000   16.080000   15.750000
    120          1           0       23.010000   16.210000   16.690000
    121          1           0       23.550000   16.890000   15.450000
    122          8           0       16.070000   15.650000   20.320000
    123          1           0       15.370000   15.170000   20.770000
    124          1           0       15.680000   15.910000   19.480000
    125          8           0       16.570000   21.300000   15.170000
    126          1           0       17.030000   22.110000   15.380000
    127          1           0       15.730000   21.380000   15.610000
    128          8           0       20.080000   15.820000   15.500000
    129          1           0       20.840000   16.360000   15.290000
    130          1           0       19.960000   15.260000   14.730000
    131          8           0       17.550000   18.070000   13.840000
    132          1           0       16.680000   18.310000   13.510000
    133          1           0       17.570000   18.420000   14.730000
    134          8           0       20.900000   25.490000   16.360000
    135          1           0       21.120000   26.240000   16.920000
    136          1           0       20.140000   25.090000   16.790000
    137          8           0       21.890000   13.930000   17.570000
    138          1           0       21.350000   14.690000   17.350000
    139          1           0       22.180000   14.090000   18.470000
    140          8           0       26.410000   20.460000   17.840000
    141          1           0       27.050000   20.340000   17.130000
    142          1           0       25.640000   19.980000   17.550000
    143          8           0       16.010000   15.910000   24.210000
    144          1           0       16.690000   15.450000   23.710000
    145          1           0       15.820000   16.690000   23.700000
    146          8           0       18.250000   23.320000   14.230000
    147          1           0       19.200000   23.290000   14.350000
    148          1           0       18.140000   23.370000   13.280000
    149          8           0       27.260000   20.670000   20.460000
    150          1           0       26.520000   21.080000   20.900000
    151          1           0       26.930000   20.440000   19.590000
    152          8           0       20.720000   27.070000   21.610000
    153          1           0       21.450000   26.500000   21.370000
    154          1           0       20.780000   27.810000   20.990000
    155          8           0       18.010000   16.910000   26.660000
    156          1           0       18.710000   17.120000   26.040000
    157          1           0       17.280000   16.650000   26.100000
    158          8           0       16.050000   24.520000   15.350000
    159          1           0       16.770000   24.070000   14.910000
    160          1           0       16.340000   24.600000   16.260000
    161          8           0       26.500000   24.310000   20.150000
    162          1           0       25.920000   24.870000   19.640000
    163          1           0       26.070000   23.450000   20.140000
    164          8           0       22.600000   22.500000   13.020000
    165          1           0       23.240000   23.140000   13.330000
    166          1           0       21.980000   22.410000   13.740000
    167          8           0       14.230000   24.190000   23.740000
    168          1           0       13.480000   23.920000   23.200000
    169          1           0       14.970000   23.710000   23.370000
    170          8           0       23.500000   15.850000   25.780000
    171          1           0       23.090000   16.150000   26.590000
    172          1           0       23.550000   16.630000   25.230000
    173          8           0       20.080000   24.390000   25.670000
    174          1           0       20.330000   25.220000   25.270000
    175          1           0       20.290000   24.500000   26.600000
    176          8           0       12.550000   19.320000   22.970000
    177          1           0       13.400000   18.910000   22.790000
    178          1           0       12.670000   20.240000   22.710000
    179          8           0       25.230000   20.030000   25.900000
    180          1           0       24.300000   19.850000   25.910000
    181          1           0       25.550000   19.660000   26.730000
    182          8           0       24.650000   17.800000   14.340000
    183          1           0       24.550000   18.750000   14.390000
    184          1           0       25.600000   17.660000   14.290000
    185          8           0       13.960000   21.830000   16.130000
    186          1           0       13.540000   22.360000   15.450000
    187          1           0       13.430000   21.030000   16.170000
    188          8           0       16.550000   13.100000   17.390000
    189          1           0       17.200000   13.430000   18.020000
    190          1           0       17.050000   12.500000   16.830000
    191          8           0       25.680000   14.030000   20.820000
    192          1           0       26.630000   14.120000   20.860000
    193          1           0       25.350000   14.930000   20.790000
    194          8           0       24.540000   26.470000   18.620000
    195          1           0       24.760000   27.000000   17.860000
    196          1           0       23.600000   26.320000   18.560000
    197          8           0       23.170000   14.010000   23.030000
    198          1           0       23.210000   13.070000   22.890000
    199          1           0       22.670000   14.100000   23.850000
    200          8           0       18.390000   12.810000   20.940000
    201          1           0       18.570000   11.990000   20.480000
    202          1           0       17.550000   12.670000   21.370000
    203          8           0       25.030000   24.950000   23.690000
    204          1           0       24.960000   25.700000   24.280000
    205          1           0       24.470000   25.170000   22.950000
    206          8           0       25.670000   15.110000   16.750000
    207          1           0       25.630000   14.250000   17.170000
[...]
   X336      48.30140  -0.00122   0.00000  -0.00488  -0.00443  48.29697
   Y336      24.81210   0.01118   0.00000   0.00892   0.00889  24.82099
   Z336      36.30164   0.01973   0.00000   0.01435   0.01383  36.31547
   X337      46.73293  -0.00975   0.00000  -0.00791  -0.00748  46.72545
   Y337      22.77120  -0.00581   0.00000  -0.00221  -0.00227  22.76893
   Z337      35.09221  -0.00398   0.00000  -0.01133  -0.01175  35.08046
   X338      21.33501  -0.00645   0.00000  -0.00511  -0.00487  21.33014
   Y338      40.95037  -0.00885   0.00000  -0.00567  -0.00633  40.94404
   Z338      39.09843  -0.01239   0.00000  -0.01002  -0.00889  39.08954
   X339      19.93661   0.00578   0.00000   0.00582   0.00599  19.94260
   Y339      41.68736   0.00292   0.00000   0.00779   0.00710  41.69446
   Z339      38.17247   0.00087   0.00000  -0.00303  -0.00181  38.17065
   X340      21.69406   0.00094   0.00000  -0.00096  -0.00066  21.69339
   Y340      42.15979   0.00664   0.00000   0.00124   0.00059  42.16038
   Z340      40.38345   0.00847   0.00000   0.00386   0.00496  40.38841
   X341      56.38943   0.01879   0.00000   0.01750   0.01775  56.40718
   Y341      38.58821  -0.00063   0.00000  -0.00085  -0.00069  38.58752
   Z341      38.30475  -0.00989   0.00000  -0.01422  -0.01524  38.28951
   X342      54.59419  -0.00538   0.00000   0.00606   0.00633  54.60052
   Y342      38.68269   0.00362   0.00000   0.00692   0.00705  38.68974
   Z342      38.58821   0.00797   0.00000   0.01324   0.01233  38.60053
   X343      56.69178  -0.00167   0.00000  -0.00218  -0.00191  56.68987
   Y343      36.83076  -0.00327   0.00000  -0.00708  -0.00690  36.82386
   Z343      37.94570   0.00223   0.00000   0.00456   0.00352  37.94922
   X344      37.92680   0.01666   0.00000   0.00929   0.00909  37.93589
   Y344      25.49241   0.00028   0.00000   0.00194   0.00166  25.49407
   Z344      25.87035   0.00211   0.00000   0.00244   0.00256  25.87291
   X345      36.20715  -0.01790   0.00000  -0.01239  -0.01261  36.19454
   Y345      26.04043   0.00364   0.00000   0.00126   0.00094  26.04137
   Z345      25.83256  -0.00515   0.00000  -0.00928  -0.00906  25.82350
   X346      37.83232   0.00339   0.00000   0.00769   0.00752  37.83983
   Y346      23.69717  -0.00424   0.00000  -0.00291  -0.00319  23.69398
   Z346      25.62469   0.00123   0.00000   0.00298   0.00311  25.62779
   X347      25.92704   0.00885   0.00000   0.00616   0.00673  25.93377
   Y347      25.87035  -0.00588   0.00000  -0.01492  -0.01547  25.85488
   Z347      38.68269  -0.00070   0.00000  -0.00242  -0.00157  38.68113
   X348      24.50975  -0.00815   0.00000  -0.00714  -0.00650  24.50325
   Y348      25.32233  -0.00375   0.00000  -0.00351  -0.00409  25.31824
   Z348      39.66535   0.00638   0.00000   0.00470   0.00565  39.67100
   X349      25.53020   0.00077   0.00000   0.00200   0.00248  25.53268
   Y349      25.37902  -0.00345   0.00000  -0.00464  -0.00520  25.37382
   Z349      36.98194  -0.00897   0.00000  -0.01113  -0.01025  36.97169
   X350      40.09999   0.00778   0.00000   0.00353   0.00258  40.10257
   Y350      43.59598   0.00579   0.00000   0.00060   0.00037  43.59635
   Z350      20.61691  -0.01906   0.00000  -0.02338  -0.02340  20.59351
   X351      41.00706   0.00157   0.00000   0.00109   0.00024  41.00730
   Y351      43.06686   0.00597   0.00000   0.01510   0.01489  43.08175
   Z351      22.10980   0.00101   0.00000  -0.00616  -0.00624  22.10355
   X352      38.43703  -0.01235   0.00000  -0.00760  -0.00852  38.42851
   Y352      42.95348  -0.00579   0.00000  -0.00367  -0.00394  42.94953
   Z352      20.86258   0.00598   0.00000   0.00673   0.00681  20.86939
   X353      27.81677  -0.00355   0.00000   0.00222   0.00195  27.81872
   Y353      51.66511  -0.00480   0.00000  -0.00381  -0.00432  51.66079
   Z353      34.78986   0.01045   0.00000   0.00218   0.00290  34.79276
   X354      27.17426   0.00042   0.00000   0.00218   0.00186  27.17612
   Y354      53.34697   0.00362   0.00000   0.00176   0.00124  53.34821
   Z354      34.58199  -0.00064   0.00000   0.00034   0.00110  34.58309
   X355      28.87502   0.00808   0.00000   0.00581   0.00545  28.88047
   Y355      51.40055   0.00276   0.00000   0.00658   0.00610  51.40665
   Z355      33.33477  -0.01678   0.00000  -0.01783  -0.01718  33.31759
   X356      42.08420  -0.00164   0.00000  -0.00824  -0.00702  42.07718
   Y356      41.40390   0.02324   0.00000   0.01927   0.01911  41.42301
   Z356      55.23669   0.00638   0.00000   0.00256   0.00241  55.23911
   X357      41.19603  -0.00562   0.00000  -0.00587  -0.00455  41.19148
   Y357      40.40234  -0.00786   0.00000  -0.00591  -0.00609  40.39625
   Z357      56.44612   0.00299   0.00000  -0.00028  -0.00037  56.44575
   X358      42.40545   0.00574   0.00000   0.00751   0.00868  42.41413
   Y358      40.28896  -0.01206   0.00000  -0.00658  -0.00674  40.28222
   Z358      53.85719  -0.00852   0.00000  -0.00026  -0.00042  53.85677
   X359      37.75673   0.01018   0.00000   0.00669   0.00780  37.76453
   Y359      23.30032   0.01208   0.00000   0.01651   0.01624  23.31657
   Z359      46.52506  -0.00051   0.00000  -0.00729  -0.00716  46.51790
   X360      38.60710  -0.00015   0.00000  -0.00167  -0.00058  38.60652
   Y360      22.03421  -0.00367   0.00000  -0.00308  -0.00333  22.03088
   Z360      45.54240  -0.00009   0.00000   0.00275   0.00283  45.54523
   X361      35.99928  -0.00774   0.00000  -0.00405  -0.00295  35.99633
   Y361      23.01686  -0.00753   0.00000  -0.01094  -0.01125  23.00561
   Z361      46.20380   0.00475   0.00000   0.01197   0.01221  46.21601
   X362      34.86545   0.00978   0.00000   0.00489   0.00400  34.86945
   Y362      43.46370   0.01014   0.00000   0.00231   0.00196  43.46566
   Z362      21.56178   0.00755   0.00000   0.00558   0.00588  21.56765
   X363      33.75051  -0.01391   0.00000  -0.01131  -0.01216  33.73835
   Y363      42.04641  -0.01741   0.00000  -0.01448  -0.01485  42.03155
   Z363      21.73185  -0.00244   0.00000  -0.00575  -0.00538  21.72647
   X364      34.90324  -0.00167   0.00000  -0.00193  -0.00294  34.90030
   Y364      43.80385   0.00506   0.00000   0.00908   0.00873  43.81258
   Z364      19.78543  -0.00576   0.00000  -0.00197  -0.00168  19.78376
   X365      27.40103   0.00574   0.00000   0.00643   0.00597  27.40699
   Y365      33.78830  -0.01068   0.00000  -0.00349  -0.00402  33.78429
   Z365      24.77431   0.00307   0.00000   0.00104   0.00180  24.77611
   X366      26.92860  -0.00440   0.00000  -0.00351  -0.00402  26.92458
   Y366      35.52685   0.01351   0.00000   0.00985   0.00931  35.53617
   Z366      24.75541  -0.00029   0.00000  -0.00026   0.00053  24.75594
   X367      27.07978   0.00050   0.00000   0.00195   0.00139  27.08117
   Y367      33.22139  -0.00105   0.00000  -0.00138  -0.00191  33.21948
   Z367      23.07356  -0.00201   0.00000  -0.00161  -0.00083  23.07273
   X368      32.61667   0.00359   0.00000   0.00380   0.00493  32.62160
   Y368      21.82634  -0.00668   0.00000  -0.00298  -0.00337  21.82297
   Z368      46.20380   0.00652   0.00000  -0.00076  -0.00031  46.20349
   X369      32.65447  -0.01061   0.00000  -0.01884  -0.01782  32.63664
   Y369      22.92238   0.00733   0.00000   0.00683   0.00644  22.92881
   Z369      44.76761  -0.01008   0.00000  -0.00888  -0.00843  44.75918
   X370      30.89702   0.00187   0.00000   0.00189   0.00304  30.90006
   Y370      21.22162   0.00453   0.00000   0.00715   0.00673  21.22835
   Z370      46.26050   0.00090   0.00000   0.00320   0.00375  46.26425
   X371      27.34434   0.01532   0.00000   0.01931   0.01999  27.36433
   Y371      48.52817   0.00112   0.00000   0.00394   0.00343  48.53160
   Z371      49.11398   0.01775   0.00000   0.01122   0.01198  49.12596
   X372      26.41837  -0.00180   0.00000   0.00346   0.00406  26.42243
   Y372      49.86987   0.00444   0.00000   0.00081   0.00027  49.87015
   Z372      48.33919  -0.00715   0.00000  -0.00481  -0.00400  48.33519
   X373      27.45772  -0.00892   0.00000  -0.01606  -0.01543  27.44229
   Y373      47.24315  -0.00367   0.00000   0.00040  -0.00011  47.24304
   Z373      47.82897  -0.00944   0.00000  -0.00648  -0.00573  47.82324
   X374      32.29542   0.00267   0.00000   0.00523   0.00507  32.30049
   Y374      55.65243   0.00031   0.00000  -0.00305  -0.00346  55.64898
   Z374      38.21026  -0.02455   0.00000  -0.02079  -0.02034  38.18992
   X375      31.63402   0.00031   0.00000   0.00418   0.00407  31.63808
   Y375      56.88076   0.00125   0.00000  -0.00290  -0.00332  56.87744
   Z375      39.36300   0.00538   0.00000  -0.00244  -0.00195  39.36104
   X376      32.84344  -0.00399   0.00000  -0.01101  -0.01106  32.83238
   Y376      54.29183  -0.00332   0.00000   0.00385   0.00347  54.29530
   Z376      39.26851   0.02001   0.00000   0.02349   0.02390  39.29241
   X377      24.98218  -0.00049   0.00000   0.00258   0.00236  24.98454
   Y377      29.21517  -0.01533   0.00000  -0.00984  -0.01042  29.20474
   Z377      26.98529   0.00533   0.00000   0.00425   0.00516  26.99045
   X378      26.28609   0.00402   0.00000  -0.00034  -0.00059  26.28550
   Y378      30.46239   0.01263   0.00000   0.01272   0.01217  30.47455
   Z378      27.07978  -0.00319   0.00000  -0.00602  -0.00519  27.07459
   X379      23.58378  -0.00155   0.00000   0.00217   0.00188  23.58566
   Y379      30.08444   0.00529   0.00000   0.00379   0.00318  30.08762
   Z379      26.22940  -0.00093   0.00000   0.00133   0.00233  26.23173
   X380      39.75984   0.00262   0.00000  -0.00199  -0.00064  39.75920
   Y380      25.81366  -0.01135   0.00000  -0.00752  -0.00774  25.80592
   Z380      51.36276  -0.00085   0.00000   0.00156   0.00157  51.36432
   X381      39.24961   0.00041   0.00000   0.00389   0.00523  39.25484
   Y381      27.49552   0.01264   0.00000   0.00967   0.00944  27.50496
   Z381      51.79739   0.00363   0.00000   0.00281   0.00285  51.80024
   X382      38.51262   0.00142   0.00000   0.00246   0.00375  38.51637
   Y382      25.26564  -0.00222   0.00000  -0.00324  -0.00348  25.26215
   Z382      50.15333  -0.00397   0.00000  -0.00672  -0.00664  50.14669
   X383      55.59574   0.00447   0.00000   0.00228   0.00268  55.59842
   Y383      30.91592   0.00246   0.00000   0.00078   0.00092  30.91684
   Z383      37.85121   0.00154   0.00000   0.00315   0.00218  37.85340
   X384      53.93278  -0.00385   0.00000  -0.00309  -0.00265  53.93014
   Y384      31.06710   0.00108   0.00000   0.00198   0.00209  31.06919
   Z384      38.56931   0.00157   0.00000   0.00194   0.00108  38.57039
   X385      55.42567  -0.00220   0.00000  -0.00345  -0.00309  55.42258
   Y385      29.55532  -0.00178   0.00000   0.00019   0.00033  29.55565
   Z385      36.66069  -0.00313   0.00000  -0.00234  -0.00329  36.65739
         Item               Value     Threshold  Converged?
 Maximum Force            0.034034     0.000450     NO 
 RMS     Force            0.010015     0.000300     NO 
 Maximum Displacement     0.030703     0.001800     NO 
 RMS     Displacement     0.008830     0.001200     NO 
 Predicted change in Energy=-6.904614D-02
 GradGradGradGradGradGradGradGradGradGradGradGradGradGradGradGradGradGrad

 Leave Link  103 at Tue May 15 10:16:20 2018, MaxMem= 14763950080 cpu:      3132.4
 (Enter /cm/shared/gaussian/g09.e01/intel64-sandybridge/g09/l9999.exe)
 1\1\GINC-POPLE04\Force\RPBE1PBE\CC-pVDZ\Br1H256O128(1-)\M.PELUSO\15-Ma
 y-2018\0\\#p PBE1PBE/cc-pvDZ force Counterpoise=2 noSymm\\forces on ch
 loride comput - NWATER: 128\\-1,1\Br,20.,20.,20.\O,18.14,22.13,18.34\H
 ,18.53,22.99,18.48\H,18.71,21.52,18.81\O,23.23,19.41,19.58\H,22.33,19.
 73,19.68\H,23.41,18.93,20.38\O,21.23,18.6,17.29\H,20.52,17.96,17.22\H,
 20.93,19.21,17.96\O,20.47,17.05,21.54\H,20.06,16.5,20.87\H,20.43,17.93
 ,21.18\O,20.74,22.93,21.58\H,20.14,22.28,21.21\H,21.05,23.42,20.82\O,1
 7.52,20.7,22.42\H,17.92,20.25,21.67\H,16.58,20.63,22.27\O,21.16,20.06,
 23.5\H,20.63,20.47,24.19\H,20.54,19.92,22.78\O,18.49,19.29,16.22\H,17.
 77,19.91,16.14\H,18.94,19.54,17.03\O,22.45,20.93,16.5\H,23.18,20.32,16
 .61\H,21.67,20.4,16.69\O,23.58,21.22,22.16\H,23.52,22.02,22.68\H,22.81
 ,20.71,22.41\O,19.46,17.15,24.15\H,18.83,16.45,23.95\H,19.78,17.44,23.
 29\O,23.17,17.77,21.98\H,23.3,17.76,22.92\H,22.46,17.16,21.82\O,18.03,
 16.66,16.92\H,18.7,16.27,16.36\H,18.09,17.6,16.76\O,19.48,15.35,19.5\H
 ,18.85,14.69,19.79\H,19.08,15.73,18.71\O,24.82,22.06,19.83\H,25.01,21.
 36,19.21\H,24.22,21.66,20.47\O,24.45,18.95,17.\H,24.5,17.99,17.04\H,23
 .9,19.19,17.75\O,21.91,24.53,19.6\H,22.68,24.63,20.15\H,22.18,23.93,18
 .91\O,19.36,24.7,18.96\H,18.91,25.55,19.03\H,20.27,24.89,19.2\O,23.83,
 16.5,18.5\H,23.07,16.32,19.04\H,24.49,16.84,19.11\O,22.86,18.28,24.52\
 H,22.2,18.05,25.17\H,22.53,19.07,24.1\O,18.85,24.91,22.63\H,19.29,25.7
 2,22.39\H,19.52,24.23,22.52\O,20.78,23.,15.15\H,21.15,22.38,15.78\H,20
 .96,23.86,15.53\O,22.26,23.08,24.44\H,21.58,23.36,25.05\H,21.8,22.98,2
 3.6\O,14.68,22.,18.76\H,15.62,22.16,18.85\H,14.54,21.92,17.82\O,15.22,
 18.34,22.32\H,14.81,17.54,21.97\H,15.25,18.94,21.58\O,23.1,23.3,17.28\
 H,24.02,23.52,17.42\H,23.13,22.48,16.79\O,16.05,23.59,21.82\H,15.56,24
 .23,21.31\H,16.97,23.82,21.67\O,16.45,24.51,17.87\H,15.92,24.89,18.56\
 H,16.69,23.64,18.21\O,19.56,21.34,25.16\H,19.92,22.02,25.74\H,18.75,21
 .71,24.82\O,17.34,22.93,24.56\H,16.98,22.52,23.76\H,17.72,23.75,24.26\
 O,16.26,19.15,24.8\H,17.17,19.43,24.66\H,15.97,18.85,23.94\O,17.99,15.
 33,22.52\H,17.54,15.39,21.68\H,18.79,14.84,22.32\O,14.52,20.8,21.57\H,
 14.88,21.68,21.68\H,14.54,20.64,20.62\O,22.14,14.61,20.28\H,21.19,14.5
 3,20.19\H,22.31,14.32,21.18\O,20.47,19.02,26.06\H,19.95,19.77,25.77\H,
 20.34,18.36,25.38\O,15.55,16.13,17.69\H,15.43,15.3,17.24\H,16.41,16.44
 ,17.39\O,14.43,18.68,19.45\H,14.73,18.33,18.61\H,13.64,18.18,19.66\O,2
 5.55,17.22,20.7\H,26.12,17.86,21.15\H,24.8,17.12,21.28\O,25.85,19.82,2
 3.32\H,25.22,20.04,22.64\H,25.5,20.23,24.12\O,23.13,16.08,15.75\H,23.0
 1,16.21,16.69\H,23.55,16.89,15.45\O,16.07,15.65,20.32\H,15.37,15.17,20
 .77\H,15.68,15.91,19.48\O,16.57,21.3,15.17\H,17.03,22.11,15.38\H,15.73
 ,21.38,15.61\O,20.08,15.82,15.5\H,20.84,16.36,15.29\H,19.96,15.26,14.7
 3\O,17.55,18.07,13.84\H,16.68,18.31,13.51\H,17.57,18.42,14.73\O,20.9,2
 5.49,16.36\H,21.12,26.24,16.92\H,20.14,25.09,16.79\O,21.89,13.93,17.57
 \H,21.35,14.69,17.35\H,22.18,14.09,18.47\O,26.41,20.46,17.84\H,27.05,2
 0.34,17.13\H,25.64,19.98,17.55\O,16.01,15.91,24.21\H,16.69,15.45,23.71
 \H,15.82,16.69,23.7\O,18.25,23.32,14.23\H,19.2,23.29,14.35\H,18.14,23.
 37,13.28\O,27.26,20.67,20.46\H,26.52,21.08,20.9\H,26.93,20.44,19.59\O,
 20.72,27.07,21.61\H,21.45,26.5,21.37\H,20.78,27.81,20.99\O,18.01,16.91
 ,26.66\H,18.71,17.12,26.04\H,17.28,16.65,26.1\O,16.05,24.52,15.35\H,16
 .77,24.07,14.91\H,16.34,24.6,16.26\O,26.5,24.31,20.15\H,25.92,24.87,19
 .64\H,26.07,23.45,20.14\O,22.6,22.5,13.02\H,23.24,23.14,13.33\H,21.98,
 22.41,13.74\O,14.23,24.19,23.74\H,13.48,23.92,23.2\H,14.97,23.71,23.37
 \O,23.5,15.85,25.78\H,23.09,16.15,26.59\H,23.55,16.63,25.23\O,20.08,24
 .39,25.67\H,20.33,25.22,25.27\H,20.29,24.5,26.6\O,12.55,19.32,22.97\H,
 13.4,18.91,22.79\H,12.67,20.24,22.71\O,25.23,20.03,25.9\H,24.3,19.85,2
 5.91\H,25.55,19.66,26.73\O,24.65,17.8,14.34\H,24.55,18.75,14.39\H,25.6
 ,17.66,14.29\O,13.96,21.83,16.13\H,13.54,22.36,15.45\H,13.43,21.03,16.
 17\O,16.55,13.1,17.39\H,17.2,13.43,18.02\H,17.05,12.5,16.83\O,25.68,14
 .03,20.82\H,26.63,14.12,20.86\H,25.35,14.93,20.79\O,24.54,26.47,18.62\
 H,24.76,27.,17.86\H,23.6,26.32,18.56\O,23.17,14.01,23.03\H,23.21,13.07
 ,22.89\H,22.67,14.1,23.85\O,18.39,12.81,20.94\H,18.57,11.99,20.48\H,17
 .55,12.67,21.37\O,25.03,24.95,23.69\H,24.96,25.7,24.28\H,24.47,25.17,2
 2.95\O,25.67,15.11,16.75\H,25.63,14.25,17.17\H,24.76,15.33,16.57\O,24.
 6,23.02,26.18\H,23.94,23.29,25.54\H,24.55,22.07,26.18\O,24.03,26.32,21
 .12\H,24.69,26.87,21.55\H,24.25,26.38,20.19\O,12.28,19.99,17.3\H,11.33
 ,20.08,17.43\H,12.64,19.96,18.19\O,25.3,15.61,23.21\H,25.25,15.46,24.1
 5\H,24.91,14.83,22.82\O,22.93,19.84,27.47\H,22.12,19.36,27.27\H,23.59,
 19.17,27.62\O,19.15,12.43,16.66\H,19.08,13.03,15.91\H,19.67,12.9,17.3\
 O,21.91,17.94,12.93\H,22.79,17.63,13.14\H,22.05,18.61,12.26\O,16.58,23
 .66,26.9\H,16.66,23.3,26.01\H,16.12,24.49,26.78\O,13.51,16.17,21.18\H,
 13.5,15.34,20.7\H,12.6,16.32,21.43\O,14.02,20.23,26.07\H,13.98,19.83,2
 6.94\H,14.84,19.91,25.69\O,22.9,25.57,14.33\H,23.13,26.5,14.39\H,22.29
 ,25.43,15.06\O,20.87,26.64,24.54\H,20.85,26.8,23.6\H,20.68,27.49,24.94
 \O,24.48,20.7,13.65\H,25.14,21.02,14.27\H,24.,21.48,13.39\O,18.97,27.6
 1,18.73\H,18.41,28.21,19.22\H,19.22,28.1,17.95\O,16.44,19.26,27.78\H,1
 6.97,20.05,27.85\H,16.39,19.09,26.84\O,25.97,23.43,16.36\H,26.11,24.18
 ,16.94\H,26.73,22.87,16.5\O,14.44,25.5,20.25\H,14.58,26.25,19.66\H,13.
 53,25.6,20.54\O,19.08,18.86,28.62\H,18.22,18.5,28.38\H,19.49,19.07,27.
 79\O,18.16,28.07,22.36\H,18.92,27.55,22.08\H,18.04,27.84,23.28\O,16.5,
 21.1,11.93\H,16.41,20.21,11.58\H,16.81,20.97,12.83\O,22.23,27.35,17.92
 \H,21.83,27.65,18.74\H,22.29,28.13,17.38\O,12.61,17.24,17.65\H,12.66,1
 8.06,17.17\H,13.27,16.68,17.24\O,27.21,17.47,24.07\H,26.57,16.88,23.67
 \H,26.86,18.35,23.91\O,11.83,23.81,18.64\H,12.64,23.44,19.\H,11.73,24.
 64,19.11\O,11.25,18.76,20.6\H,10.93,19.66,20.48\H,11.96,18.84,21.24\O,
 19.59,17.28,11.59\H,18.91,17.24,12.27\H,20.38,17.54,12.07\O,28.36,20.9
 7,23.74\H,28.,21.67,24.3\H,27.59,20.54,23.37\O,15.58,27.29,22.7\H,16.4
 8,27.42,22.37\H,15.26,26.53,22.21\O,24.98,23.82,13.9\H,24.67,24.73,13.
 95\H,25.39,23.67,14.75\O,22.92,11.89,16.28\H,23.16,12.36,15.48\H,22.66
 ,12.58,16.89\O,22.94,13.67,13.99\H,23.26,14.4,14.52\H,21.99,13.79,13.9
 7\O,15.86,12.43,22.01\H,15.36,13.05,21.48\H,15.43,11.59,21.86\O,20.88,
 16.48,27.92\H,21.22,16.8,28.76\H,19.96,16.74,27.93\O,18.51,22.27,28.48
 \H,19.21,22.89,28.29\H,17.78,22.55,27.92\O,22.34,20.05,11.28\H,22.5,20
 .84,11.8\H,22.73,20.25,10.43\O,17.54,13.9,14.29\H,16.77,14.48,14.23\H,
 17.17,13.03,14.38\O,13.21,25.09,15.99\H,14.13,24.84,15.95\H,12.94,24.8
 7,16.89\O,27.6,24.04,22.91\H,26.74,24.41,23.1\H,27.62,23.98,21.95\O,19
 .08,27.42,14.94\H,19.96,27.04,14.86\H,19.21,28.36,14.82\O,15.34,14.17,
 26.14\H,15.57,14.81,25.48\H,16.11,13.61,26.22\O,17.66,27.23,24.9\H,17.
 43,27.96,25.47\H,17.1,26.51,25.19\O,16.12,27.43,15.75\H,17.,27.71,15.4
 9\H,16.07,26.51,15.47\O,25.44,12.66,18.39\H,25.56,13.13,19.21\H,24.73,
 12.05,18.57\O,11.29,21.67,20.69\H,10.55,22.06,20.2\H,11.48,22.31,21.37
 \O,29.84,20.42,20.27\H,28.89,20.47,20.42\H,30.,19.49,20.08\O,20.07,13.
 49,13.69\H,19.16,13.78,13.67\H,20.02,12.54,13.56\O,13.72,13.69,20.47\H
 ,12.97,13.4,20.99\H,13.51,13.43,19.57\O,21.22,23.07,10.91\H,21.7,22.79
 ,11.7\H,20.34,22.73,11.04\O,14.72,27.34,18.41\H,14.38,28.23,18.3\H,15.
 28,27.2,17.64\O,22.27,21.91,29.23\H,21.8,21.38,29.87\H,22.44,21.32,28.
 5\O,19.98,12.33,24.62\H,20.43,11.66,24.1\H,19.05,12.18,24.45\O,18.45,2
 3.,11.41\H,17.86,22.25,11.5\H,18.47,23.18,10.47\O,14.5,17.88,13.11\H,1
 4.25,18.8,13.1\H,14.33,17.58,12.21\O,17.26,11.55,24.45\H,17.28,12.13,2
 3.69\H,16.35,11.23,24.48\O,14.47,25.68,25.99\H,13.98,26.39,25.58\H,14.
 53,25.,25.31\O,17.09,29.45,20.22\H,16.74,30.1,20.83\H,17.38,28.73,20.7
 8\O,13.22,15.46,14.28\H,13.91,16.12,14.33\H,12.48,15.92,13.88\O,21.04,
 13.66,27.18\H,20.77,14.55,27.41\H,20.38,13.37,26.54\O,29.42,16.36,20.0
 3\H,28.54,16.44,20.41\H,29.33,15.64,19.4\\Version=ES64L-G09RevE.01\HF=
 -9773.3724869\RMSD=1.402e-09\RMSF=1.001e-02\Dipole=-14.7031073,10.3834
 343,-9.2464724\Quadrupole=-848.0445981,1389.7285409,-541.6839429,-1471
 .52079,-2300.5598496,-1408.6447133\PG=C01 [X(Br1H256O128)]\\@


 TO SEE A WORLD IN A GRAIN OF SAND
 AND A HEAVEN IN A WILD FLOWER
 HOLD INFINITY IN THE PALM OF YOUR HAND
 AND ETERNITY IN AN HOUR

                       -- WILLIAM BLAKE
 Job cpu time:       8 days  7 hours 29 minutes 20.3 seconds.
 File lengths (MBytes):  RWF=   7285 Int=      0 D2E=      0 Chk=   2411 Scr=      1
 Normal termination of Gaussian 09 at Tue May 15 10:16:47 2018.
