 Entering Gaussian System, Link 0=/cm/shared/gaussian/g09.e01/intel64-sandybridge/g09/g09
 Initial command:
 /cm/shared/gaussian/g09.e01/intel64-sandybridge/g09/l1.exe "/local/scratch/m.peluso/128_wat/370/Gau-5019.inp" -scrdir="/local/scratch/m.peluso/128_wat/370/"
 Entering Link 1 = /cm/shared/gaussian/g09.e01/intel64-sandybridge/g09/l1.exe PID=      5020.
  
 Copyright (c) 1988,1990,1992,1993,1995,1998,2003,2009,2015,
            Gaussian, Inc.  All Rights Reserved.
  
 This is part of the Gaussian(R) 09 program.  It is based on
 the Gaussian(R) 03 system (copyright 2003, Gaussian, Inc.),
 the Gaussian(R) 98 system (copyright 1998, Gaussian, Inc.),
 the Gaussian(R) 94 system (copyright 1995, Gaussian, Inc.),
 the Gaussian 92(TM) system (copyright 1992, Gaussian, Inc.),
 the Gaussian 90(TM) system (copyright 1990, Gaussian, Inc.),
 the Gaussian 88(TM) system (copyright 1988, Gaussian, Inc.),
 the Gaussian 86(TM) system (copyright 1986, Carnegie Mellon
 University), and the Gaussian 82(TM) system (copyright 1983,
 Carnegie Mellon University). Gaussian is a federally registered
 trademark of Gaussian, Inc.
  
 This software contains proprietary and confidential information,
 including trade secrets, belonging to Gaussian, Inc.
  
 This software is provided under written license and may be
 used, copied, transmitted, or stored only in accord with that
 written license.
  
 The following legend is applicable only to US Government
 contracts under FAR:
  
                    RESTRICTED RIGHTS LEGEND
  
 Use, reproduction and disclosure by the US Government is
 subject to restrictions as set forth in subparagraphs (a)
 and (c) of the Commercial Computer Software - Restricted
 Rights clause in FAR 52.227-19.
  
 Gaussian, Inc.
 340 Quinnipiac St., Bldg. 40, Wallingford CT 06492
  
  
 ---------------------------------------------------------------
 Warning -- This program may not be used in any manner that
 competes with the business of Gaussian, Inc. or will provide
 assistance to any competitor of Gaussian, Inc.  The licensee
 of this program is prohibited from giving any competitor of
 Gaussian, Inc. access to this program.  By using this program,
 the user acknowledges that Gaussian, Inc. is engaged in the
 business of creating and licensing software in the field of
 computational chemistry and represents and warrants to the
 licensee that it is not a competitor of Gaussian, Inc. and that
 it will not use this program in any manner prohibited above.
 ---------------------------------------------------------------
  

 Cite this work as:
 Gaussian 09, Revision E.01,
 M. J. Frisch, G. W. Trucks, H. B. Schlegel, G. E. Scuseria, 
 M. A. Robb, J. R. Cheeseman, G. Scalmani, V. Barone, B. Mennucci, 
 G. A. Petersson, H. Nakatsuji, M. Caricato, X. Li, H. P. Hratchian, 
 A. F. Izmaylov, J. Bloino, G. Zheng, J. L. Sonnenberg, M. Hada, 
 M. Ehara, K. Toyota, R. Fukuda, J. Hasegawa, M. Ishida, T. Nakajima, 
 Y. Honda, O. Kitao, H. Nakai, T. Vreven, J. A. Montgomery, Jr., 
 J. E. Peralta, F. Ogliaro, M. Bearpark, J. J. Heyd, E. Brothers, 
 K. N. Kudin, V. N. Staroverov, T. Keith, R. Kobayashi, J. Normand, 
 K. Raghavachari, A. Rendell, J. C. Burant, S. S. Iyengar, J. Tomasi, 
 M. Cossi, N. Rega, J. M. Millam, M. Klene, J. E. Knox, J. B. Cross, 
 V. Bakken, C. Adamo, J. Jaramillo, R. Gomperts, R. E. Stratmann, 
 O. Yazyev, A. J. Austin, R. Cammi, C. Pomelli, J. W. Ochterski, 
 R. L. Martin, K. Morokuma, V. G. Zakrzewski, G. A. Voth, 
 P. Salvador, J. J. Dannenberg, S. Dapprich, A. D. Daniels, 
 O. Farkas, J. B. Foresman, J. V. Ortiz, J. Cioslowski, 
 and D. J. Fox, Gaussian, Inc., Wallingford CT, 2013.
 
 ******************************************
 Gaussian 09:  ES64L-G09RevE.01 30-Nov-2015
                 5-May-2018 
 ******************************************
 %Mem=110GB
 %NProcShared=64
 Will use up to   64 processors via shared memory.
 %chk=snap13.chk
 ----------------------------------------------
 #p PBE1PBE/cc-pvDZ force Counterpoise=2 noSymm
 ----------------------------------------------
 1/10=7,30=1,38=1,62=2/1,3;
 2/12=2,15=1,17=6,18=5,40=1/2;
 1/10=7,30=1,38=1,53=2,62=2,63=101/22;
 3/5=16,11=2,16=1,25=1,30=1,71=1,74=-13/1,2,3;
 4//1;
 5/5=2,38=5/2;
 6/7=2,8=2,9=2,10=2,28=1/1;
 7/7=1,29=1,30=1,33=-1/1,2,3,16;
 1/10=7,30=1,53=2,62=2,63=101/22;
 3/5=7,6=11,11=2,16=1,25=1,30=1,71=1,74=-13,82=7/1,2,3;
 4//1;
 5/5=2,38=5/2;
 6/7=2,8=2,9=2,10=2,28=1/1;
 7/7=1,29=1,30=1,33=-1/1,2,3,16;
 1/10=7,30=1,53=2,62=2,63=101/22(-5);
 7/9=1,29=1,44=-1/16;
 1/10=7,30=1,62=2/3;
 99//99;
 Leave Link    1 at Sat May  5 10:19:39 2018, MaxMem= 14763950080 cpu:         9.0
 (Enter /cm/shared/gaussian/g09.e01/intel64-sandybridge/g09/l101.exe)
 ---------------------------------------
 forces on chloride comput - NWATER: 128
 ---------------------------------------
 Symbolic Z-matrix:
 Charge = -1 Multiplicity = 1 in supermolecule
 Charge = -1 Multiplicity = 1 in fragment      1.
 Charge =  0 Multiplicity = 1 in fragment      2.
 Br(Fragment=1)        20.       20.       20. 
 O(Fragment=2)         18.13     17.74     18.93 
 H(Fragment=2)         18.48     18.44     19.49 
 H(Fragment=2)         17.18     17.81     19.04 
 O(Fragment=2)         21.29     22.58     21.5 
 H(Fragment=2)         21.19     21.72     21.1 
 H(Fragment=2)         21.87     23.06     20.9 
 O(Fragment=2)         18.73     21.24     17.12 
 H(Fragment=2)         19.11     20.74     17.84 
 H(Fragment=2)         18.32     22.       17.54 
 O(Fragment=2)         22.9      20.42     18.43 
 H(Fragment=2)         21.96     20.36     18.56 
 H(Fragment=2)         23.28     20.12     19.25 
 O(Fragment=2)         22.26     18.38     21.76 
 H(Fragment=2)         21.85     18.66     20.93 
 H(Fragment=2)         21.68     18.73     22.44 
 O(Fragment=2)         18.17     22.83     19.45 
 H(Fragment=2)         17.73     23.38     20.1 
 H(Fragment=2)         18.65     22.18     19.96 
 O(Fragment=2)         18.43     18.38     22.96 
 H(Fragment=2)         17.63     17.87     22.93 
 H(Fragment=2)         18.57     18.67     22.06 
 O(Fragment=2)         20.51     19.66     23.94 
 H(Fragment=2)         19.7      19.23     23.67 
 H(Fragment=2)         20.4      19.84     24.87 
 O(Fragment=2)         20.11     24.21     17.9 
 H(Fragment=2)         19.75     24.       17.03 
 H(Fragment=2)         19.62     23.66     18.5 
 O(Fragment=2)         23.07     23.46     19.4 
 H(Fragment=2)         23.62     24.08     19.89 
 H(Fragment=2)         23.37     22.6      19.68 
 O(Fragment=2)         22.38     22.6      16.61 
 H(Fragment=2)         22.28     21.67     16.8 
 H(Fragment=2)         22.57     23.       17.45 
 O(Fragment=2)         19.28     19.3      15.15 
 H(Fragment=2)         19.22     20.02     15.78 
 H(Fragment=2)         19.03     19.7      14.31 
 O(Fragment=2)         16.74     20.69     23.7 
 H(Fragment=2)         17.6      21.01     23.42 
 H(Fragment=2)         16.93     20.03     24.37 
 O(Fragment=2)         18.03     16.84     16.48 
 H(Fragment=2)         18.19     17.11     17.38 
 H(Fragment=2)         18.44     17.53     15.95 
 O(Fragment=2)         20.67     22.71     24.4 
 H(Fragment=2)         20.91     22.22     23.61 
 H(Fragment=2)         20.53     22.03     25.06 
 O(Fragment=2)         24.64     19.62     22.23 
 H(Fragment=2)         24.63     19.86     23.16 
 H(Fragment=2)         23.76     19.29     22.06 
 O(Fragment=2)         20.24     16.52     23.86 
 H(Fragment=2)         19.8      17.15     23.29 
 H(Fragment=2)         19.79     15.69     23.69 
 O(Fragment=2)         22.98     17.16     18.08 
 H(Fragment=2)         22.2      16.77     17.7 
 H(Fragment=2)         23.08     18.       17.63 
 O(Fragment=2)         19.9      24.62     22.64 
 H(Fragment=2)         19.87     24.       23.37 
 H(Fragment=2)         20.17     24.09     21.89 
 O(Fragment=2)         21.36     14.8      21.73 
 H(Fragment=2)         21.66     15.69     21.56 
 H(Fragment=2)         20.47     14.91     22.07 
 O(Fragment=2)         14.91     19.27     21.62 
 H(Fragment=2)         15.5      19.5      22.34 
 H(Fragment=2)         14.07     19.1      22.04 
 O(Fragment=2)         20.89     15.54     17.08 
 H(Fragment=2)         20.2      15.22     17.66 
 H(Fragment=2)         20.56     15.36     16.2 
 O(Fragment=2)         15.07     18.19     19.08 
 H(Fragment=2)         14.86     18.48     19.97 
 H(Fragment=2)         14.54     18.76     18.52 
 O(Fragment=2)         22.85     16.98     24.91 
 H(Fragment=2)         23.52     16.49     24.43 
 H(Fragment=2)         22.2      17.21     24.25 
 O(Fragment=2)         19.01     26.21     19.49 
 H(Fragment=2)         18.23     26.67     19.17 
 H(Fragment=2)         19.11     25.47     18.9 
 O(Fragment=2)         16.46     24.31     21.24 
 H(Fragment=2)         15.93     24.25     22.03 
 H(Fragment=2)         15.83     24.45     20.54 
 O(Fragment=2)         21.45     17.65     14.38 
 H(Fragment=2)         22.26     18.15     14.49 
 H(Fragment=2)         20.76     18.26     14.61 
 O(Fragment=2)         19.17     22.21     14. 
 H(Fragment=2)         19.58     22.54     14.8 
 H(Fragment=2)         19.41     22.85     13.33 
 O(Fragment=2)         22.16     26.12     18.51 
 H(Fragment=2)         21.28     25.78     18.66 
 H(Fragment=2)         22.74     25.4      18.77 
 O(Fragment=2)         13.96     22.21     22.2 
 H(Fragment=2)         13.89     21.26     22.12 
 H(Fragment=2)         14.66     22.45     21.6 
 O(Fragment=2)         26.37     17.48     20.13 
 H(Fragment=2)         25.66     17.65     20.74 
 H(Fragment=2)         27.15     17.84     20.56 
 O(Fragment=2)         25.74     18.63     16.59 
 H(Fragment=2)         25.15     19.28     16.21 
 H(Fragment=2)         25.5      18.61     17.52 
 O(Fragment=2)         25.51     15.73     18.28 
 H(Fragment=2)         24.68     16.2      18.4 
 H(Fragment=2)         26.16     16.26     18.74 
 O(Fragment=2)         26.39     21.89     20.47 
 H(Fragment=2)         27.22     21.47     20.69 
 H(Fragment=2)         25.86     21.81     21.27 
 O(Fragment=2)         23.01     25.16     23.32 
 H(Fragment=2)         22.12     25.14     22.95 
 H(Fragment=2)         23.06     26.02     23.74 
 O(Fragment=2)         14.48     22.92     19.11 
 H(Fragment=2)         13.85     22.21     19.06 
 H(Fragment=2)         14.77     23.05     18.21 
 O(Fragment=2)         21.71     23.72     14.14 
 H(Fragment=2)         21.75     23.59     15.08 
 H(Fragment=2)         21.16     24.49     14.02 
 O(Fragment=2)         15.82     16.95     23.76 
 H(Fragment=2)         16.2      16.17     23.35 
 H(Fragment=2)         14.89     16.92     23.51 
 O(Fragment=2)         17.85     14.15     16.45 
 H(Fragment=2)         17.13     14.11     15.81 
 H(Fragment=2)         18.13     15.06     16.43 
 O(Fragment=2)         15.49     16.14     16.08 
 H(Fragment=2)         15.07     17.       16.09 
 H(Fragment=2)         16.42     16.33     16.21 
 O(Fragment=2)         22.86     14.89     15.43 
 H(Fragment=2)         22.29     15.26     16.1 
 H(Fragment=2)         22.48     14.03     15.24 
 O(Fragment=2)         16.15     22.99     14.79 
 H(Fragment=2)         15.99     23.92     14.65 
 H(Fragment=2)         17.1      22.92     14.87 
 O(Fragment=2)         15.69     15.13     21.4 
 H(Fragment=2)         16.07     14.43     20.86 
 H(Fragment=2)         14.94     15.44     20.89 
 O(Fragment=2)         20.13     20.72     26.63 
 H(Fragment=2)         21.       20.84     27. 
 H(Fragment=2)         19.62     21.46     26.96 
 O(Fragment=2)         18.99     14.06     22.91 
 H(Fragment=2)         19.17     13.21     22.5 
 H(Fragment=2)         18.09     13.98     23.23 
 O(Fragment=2)         25.35     23.93     16.42 
 H(Fragment=2)         25.06     24.55     17.08 
 H(Fragment=2)         24.63     23.3      16.34 
 O(Fragment=2)         14.76     22.62     25.14 
 H(Fragment=2)         15.38     22.13     24.6 
 H(Fragment=2)         15.31     23.15     25.72 
 O(Fragment=2)         16.9      17.6      26.41 
 H(Fragment=2)         16.58     17.59     25.51 
 H(Fragment=2)         17.57     16.91     26.43 
 O(Fragment=2)         17.64     16.56     13.35 
 H(Fragment=2)         17.94     16.7      14.25 
 H(Fragment=2)         18.35     16.9      12.81 
 O(Fragment=2)         13.58     19.84     17.32 
 H(Fragment=2)         13.6      20.69     16.89 
 H(Fragment=2)         12.91     19.34     16.84 
 O(Fragment=2)         21.56     24.67     26.04 
 H(Fragment=2)         20.71     24.95     25.69 
 H(Fragment=2)         21.76     23.86     25.58 
 O(Fragment=2)         24.8      14.54     21.43 
 H(Fragment=2)         25.56     14.37     20.88 
 H(Fragment=2)         24.05     14.33     20.88 
 O(Fragment=2)         25.19     23.41     24.05 
 H(Fragment=2)         24.73     24.07     23.52 
 H(Fragment=2)         24.75     23.44     24.89 
 O(Fragment=2)         18.74     15.61     26.63 
 H(Fragment=2)         19.2      16.35     26.24 
 H(Fragment=2)         19.2      14.84     26.29 
 O(Fragment=2)         16.77     20.43     26.61 
 H(Fragment=2)         15.84     20.48     26.8 
 H(Fragment=2)         17.02     19.53     26.82 
 O(Fragment=2)         20.11     27.81     22.81 
 H(Fragment=2)         19.84     26.96     22.46 
 H(Fragment=2)         20.95     27.99     22.38 
 O(Fragment=2)         24.74     15.16     23.95 
 H(Fragment=2)         25.66     15.15     24.19 
 H(Fragment=2)         24.73     15.14     23. 
 O(Fragment=2)         22.       21.71     12.33 
 H(Fragment=2)         22.78     22.09     11.92 
 H(Fragment=2)         21.88     22.23     13.13 
 O(Fragment=2)         13.68     21.91     15.49 
 H(Fragment=2)         14.6      22.07     15.28 
 H(Fragment=2)         13.34     21.45     14.72 
 O(Fragment=2)         19.09     26.28     25.33 
 H(Fragment=2)         18.85     26.11     24.42 
 H(Fragment=2)         19.83     26.89     25.28 
 O(Fragment=2)         14.83     14.34     17.94 
 H(Fragment=2)         15.02     14.92     17.21 
 H(Fragment=2)         14.31     14.87     18.54 
 O(Fragment=2)         22.87     12.29     20.73 
 H(Fragment=2)         22.38     12.86     21.33 
 H(Fragment=2)         22.25     12.11     20.02 
 O(Fragment=2)         20.       19.46     12.01 
 H(Fragment=2)         20.55     18.77     11.64 
 H(Fragment=2)         20.61     20.09     12.38 
 O(Fragment=2)         22.02     14.94     26.34 
 H(Fragment=2)         22.4      15.63     25.8 
 H(Fragment=2)         22.1      14.14     25.81 
 O(Fragment=2)         19.7      25.39     14.58 
 H(Fragment=2)         19.98     26.21     15. 
 H(Fragment=2)         19.01     25.66     13.98 
 O(Fragment=2)         18.26     22.43     27.62 
 H(Fragment=2)         17.79     21.77     27.12 
 H(Fragment=2)         17.68     23.2      27.6 
 O(Fragment=2)         17.85     21.11     11.81 
 H(Fragment=2)         18.       21.35     12.72 
 H(Fragment=2)         18.5      20.43     11.63 
 O(Fragment=2)         16.89     12.98     19.76 
 H(Fragment=2)         17.52     12.43     19.3 
 H(Fragment=2)         16.22     13.17     19.11 
 O(Fragment=2)         22.72     21.45     27.29 
 H(Fragment=2)         23.51     21.97     27.42 
 H(Fragment=2)         23.05     20.57     27.07 
 O(Fragment=2)         20.29     14.88     14.05 
 H(Fragment=2)         20.14     14.28     13.32 
 H(Fragment=2)         20.75     15.62     13.66 
 O(Fragment=2)         17.12     27.13     22.81 
 H(Fragment=2)         17.26     27.01     21.87 
 H(Fragment=2)         17.16     28.07     22.94 
 O(Fragment=2)         27.83     19.75     18.48 
 H(Fragment=2)         27.52     19.13     17.81 
 H(Fragment=2)         27.55     20.61     18.15 
 O(Fragment=2)         17.71     26.85     16.98 
 H(Fragment=2)         18.29     26.89     16.21 
 H(Fragment=2)         16.88     26.53     16.64 
 O(Fragment=2)         27.35     21.93     16.98 
 H(Fragment=2)         28.01     22.1      16.31 
 H(Fragment=2)         26.75     22.67     16.92 
 O(Fragment=2)         18.77     11.89     18.03 
 H(Fragment=2)         18.44     12.66     17.57 
 H(Fragment=2)         19.69     12.09     18.21 
 O(Fragment=2)         23.92     18.55     13.31 
 H(Fragment=2)         24.36     19.39     13.24 
 H(Fragment=2)         24.6      17.95     13.62 
 O(Fragment=2)         22.73     27.9      21.7 
 H(Fragment=2)         23.27     27.12     21.56 
 H(Fragment=2)         22.61     28.27     20.82 
 O(Fragment=2)         16.42     13.94     23.98 
 H(Fragment=2)         15.98     13.33     24.58 
 H(Fragment=2)         15.86     13.96     23.2 
 O(Fragment=2)         24.25     19.21     27.02 
 H(Fragment=2)         24.88     19.19     26.3 
 H(Fragment=2)         23.97     18.3      27.12 
 O(Fragment=2)         27.46     21.81     23.48 
 H(Fragment=2)         26.7      22.31     23.8 
 H(Fragment=2)         28.06     22.48     23.14 
 O(Fragment=2)         28.41     20.08     21.23 
 H(Fragment=2)         28.58     19.23     21.63 
 H(Fragment=2)         28.04     19.88     20.37 
 O(Fragment=2)         20.09     18.35     28.81 
 H(Fragment=2)         20.3      19.18     29.25 
 H(Fragment=2)         19.81     18.62     27.93 
 O(Fragment=2)         15.5      25.5      15.68 
 H(Fragment=2)         14.91     25.1      16.32 
 H(Fragment=2)         15.02     26.26     15.35 
 O(Fragment=2)         21.46     11.76     18.57 
 H(Fragment=2)         21.7      10.9      18.24 
 H(Fragment=2)         21.68     12.36     17.86 
 O(Fragment=2)         15.96     25.71     24.87 
 H(Fragment=2)         16.48     26.03     24.13 
 H(Fragment=2)         16.13     26.34     25.57 
 O(Fragment=2)         18.72     11.71     21.73 
 H(Fragment=2)         18.08     12.18     21.2 
 H(Fragment=2)         18.2      11.22     22.36 
 O(Fragment=2)         28.18     23.94     19.93 
 H(Fragment=2)         28.41     24.18     19.03 
 H(Fragment=2)         27.4      23.4      19.84 
 O(Fragment=2)         25.21     26.25     20.4 
 H(Fragment=2)         25.64     26.81     21.05 
 H(Fragment=2)         25.78     26.31     19.63 
 O(Fragment=2)         20.28     28.84     18.67 
 H(Fragment=2)         19.91     28.15     19.22 
 H(Fragment=2)         19.85     29.64     18.96 
 O(Fragment=2)         13.25     25.22     17.88 
 H(Fragment=2)         12.34     25.49     17.78 
 H(Fragment=2)         13.23     24.58     18.59 
 O(Fragment=2)         22.98     28.71     18.84 
 H(Fragment=2)         22.12     29.09     18.67 
 H(Fragment=2)         22.85     27.77     18.76 
 O(Fragment=2)         26.62     19.81     25.39 
 H(Fragment=2)         26.9      20.48     24.77 
 H(Fragment=2)         26.85     20.16     26.25 
 O(Fragment=2)         25.22     15.69     13.77 
 H(Fragment=2)         24.84     15.38     12.95 
 H(Fragment=2)         24.51     15.64     14.41 
 O(Fragment=2)         14.44     26.32     22.01 
 H(Fragment=2)         14.1      25.79     22.73 
 H(Fragment=2)         15.31     26.6      22.3 
 O(Fragment=2)         13.13     16.22     23.12 
 H(Fragment=2)         12.4      16.79     23.35 
 H(Fragment=2)         12.93     15.92     22.23 
 O(Fragment=2)         12.53     24.47     23.23 
 H(Fragment=2)         13.07     23.69     23.15 
 H(Fragment=2)         12.43     24.6      24.18 
 O(Fragment=2)         25.32     13.5      16.69 
 H(Fragment=2)         25.56     14.24     17.24 
 H(Fragment=2)         24.38     13.6      16.55 
 O(Fragment=2)         12.56     21.       25.11 
 H(Fragment=2)         11.89     21.64     25.36 
 H(Fragment=2)         13.37     21.51     25.05 
 O(Fragment=2)         27.29     15.85     16.01 
 H(Fragment=2)         26.63     15.83     16.71 
 H(Fragment=2)         26.79     15.81     15.2 
 O(Fragment=2)         23.4      12.74     24.5 
 H(Fragment=2)         24.1      12.3      24.98 
 H(Fragment=2)         23.73     13.63     24.36 
 O(Fragment=2)         11.91     19.48     22.82 
 H(Fragment=2)         11.45     18.77     23.28 
 H(Fragment=2)         12.18     20.08     23.52 
 O(Fragment=2)         13.92     18.84     26.12 
 H(Fragment=2)         13.45     18.83     26.95 
 H(Fragment=2)         13.56     19.6      25.65 
 O(Fragment=2)         16.01     24.46     27.1 
 H(Fragment=2)         15.61     25.28     27.38 
 H(Fragment=2)         16.16     24.57     26.16 
 O(Fragment=2)         17.04     28.28     19.5 
 H(Fragment=2)         16.57     29.1      19.64 
 H(Fragment=2)         16.49     27.8      18.88 
 O(Fragment=2)         21.38     12.52     15.87 
 H(Fragment=2)         21.8      11.7      15.61 
 H(Fragment=2)         20.92     12.81     15.08 
 O(Fragment=2)         17.5      13.13     26.25 
 H(Fragment=2)         17.14     13.7      26.93 
 H(Fragment=2)         17.53     13.69     25.47 
 O(Fragment=2)         15.36     22.45     11.96 
 H(Fragment=2)         15.99     22.52     12.68 
 H(Fragment=2)         15.56     23.19     11.39 
 O(Fragment=2)         23.01     27.36     15.39 
 H(Fragment=2)         23.61     26.68     15.71 
 H(Fragment=2)         23.44     28.18     15.63 
 O(Fragment=2)         11.79     17.11     19. 
 H(Fragment=2)         11.45     17.96     18.73 
 H(Fragment=2)         12.07     16.69     18.18 
 O(Fragment=2)         20.29     27.9      16.12 
 H(Fragment=2)         21.23     27.75     16.1 
 H(Fragment=2)         20.11     28.27     16.98 
 O(Fragment=2)         21.78     15.54     11.74 
 H(Fragment=2)         22.33     15.74     12.5 
 H(Fragment=2)         22.04     14.66     11.48 
 O(Fragment=2)         12.5      14.99     20.83 
 H(Fragment=2)         12.11     15.69     20.3 
 H(Fragment=2)         12.26     14.18     20.37 
 O(Fragment=2)         27.46     16.92     24.57 
 H(Fragment=2)         27.28     17.54     25.28 
 H(Fragment=2)         27.74     17.47     23.84 
 O(Fragment=2)         14.31     27.3      19.46 
 H(Fragment=2)         13.85     26.54     19.1 
 H(Fragment=2)         14.29     27.16     20.41 
 O(Fragment=2)         25.3      23.78     13.19 
 H(Fragment=2)         25.69     22.99     13.57 
 H(Fragment=2)         25.21     24.38     13.93 
 O(Fragment=2)         13.82     17.95     13.64 
 H(Fragment=2)         14.46     17.43     13.15 
 H(Fragment=2)         13.76     18.77     13.15 
 O(Fragment=2)         11.36     22.82     19.46 
 H(Fragment=2)         11.09     22.39     20.27 
 H(Fragment=2)         10.62     23.39     19.23 
 O(Fragment=2)         27.57     18.11     13.88 
 H(Fragment=2)         27.48     17.25     13.46 
 H(Fragment=2)         27.2      17.99     14.75 
 O(Fragment=2)         25.73     20.44     12.88 
 H(Fragment=2)         26.48     19.91     13.13 
 H(Fragment=2)         25.7      20.37     11.92 
 O(Fragment=2)         22.35     18.71     10.6 
 H(Fragment=2)         22.42     17.84     10.21 
 H(Fragment=2)         22.85     18.65     11.41 
 O(Fragment=2)         16.52     13.83     13.61 
 H(Fragment=2)         15.67     14.13     13.95 
 H(Fragment=2)         16.92     14.62     13.23 
 O(Fragment=2)         13.92     15.18     25.82 
 H(Fragment=2)         14.64     15.73     26.13 
 H(Fragment=2)         13.62     15.61     25.02 
 O(Fragment=2)         23.63     16.86     28.18 
 H(Fragment=2)         23.55     16.1      27.6 
 H(Fragment=2)         23.       16.7      28.88 
 O(Fragment=2)         28.71     17.38     21.87 
 H(Fragment=2)         29.58     17.39     21.47 
 H(Fragment=2)         28.41     16.48     21.77 
 O(Fragment=2)         21.5      23.53     29.36 
 H(Fragment=2)         21.33     22.81     28.75 
 H(Fragment=2)         21.43     24.32     28.84 
 O(Fragment=2)         24.89     24.13     26.86 
 H(Fragment=2)         25.64     23.77     26.39 
 H(Fragment=2)         25.01     23.83     27.76 
 O(Fragment=2)         14.82     12.05     16.52 
 H(Fragment=2)         14.21     11.43     16.92 
 H(Fragment=2)         14.75     12.84     17.05 
 O(Fragment=2)         9.74      19.77     20.86 
 H(Fragment=2)         9.5       20.69     21. 
 H(Fragment=2)         10.68     19.75     21.01 
 
 NAtoms=    385 NQM=      385 NQMF=       0 NMMI=      0 NMMIF=      0
                NMic=       0 NMicF=      0.
                    Isotopes and Nuclear Properties:
 (Nuclear quadrupole moments (NQMom) in fm**2, nuclear magnetic moments (NMagM)
  in nuclear magnetons)

  Atom         1           2           3           4           5           6           7           8           9          10
 IAtWgt=          79          16           1           1          16           1           1          16           1           1
 AtmWgt=  78.9183361  15.9949146   1.0078250   1.0078250  15.9949146   1.0078250   1.0078250  15.9949146   1.0078250   1.0078250
 NucSpn=           3           0           1           1           0           1           1           0           1           1
 AtZEff=   0.0000000   0.0000000   0.0000000   0.0000000   0.0000000   0.0000000   0.0000000   0.0000000   0.0000000   0.0000000
 NQMom=   31.3000000   0.0000000   0.0000000   0.0000000   0.0000000   0.0000000   0.0000000   0.0000000   0.0000000   0.0000000
 NMagM=    2.1063990   0.0000000   2.7928460   2.7928460   0.0000000   2.7928460   2.7928460   0.0000000   2.7928460   2.7928460
 AtZNuc=  35.0000000   8.0000000   1.0000000   1.0000000   8.0000000   1.0000000   1.0000000   8.0000000   1.0000000   1.0000000

  Atom        11          12          13          14          15          16          17          18          19          20
 IAtWgt=          16           1           1          16           1           1          16           1           1          16
 AtmWgt=  15.9949146   1.0078250   1.0078250  15.9949146   1.0078250   1.0078250  15.9949146   1.0078250   1.0078250  15.9949146
 NucSpn=           0           1           1           0           1           1           0           1           1           0
 AtZEff=   0.0000000   0.0000000   0.0000000   0.0000000   0.0000000   0.0000000   0.0000000   0.0000000   0.0000000   0.0000000
 NQMom=    0.0000000   0.0000000   0.0000000   0.0000000   0.0000000   0.0000000   0.0000000   0.0000000   0.0000000   0.0000000
 NMagM=    0.0000000   2.7928460   2.7928460   0.0000000   2.7928460   2.7928460   0.0000000   2.7928460   2.7928460   0.0000000
 AtZNuc=   8.0000000   1.0000000   1.0000000   8.0000000   1.0000000   1.0000000   8.0000000   1.0000000   1.0000000   8.0000000

  Atom        21          22          23          24          25          26          27          28          29          30
 IAtWgt=           1           1          16           1           1          16           1           1          16           1
 AtmWgt=   1.0078250   1.0078250  15.9949146   1.0078250   1.0078250  15.9949146   1.0078250   1.0078250  15.9949146   1.0078250
 NucSpn=           1           1           0           1           1           0           1           1           0           1
 AtZEff=   0.0000000   0.0000000   0.0000000   0.0000000   0.0000000   0.0000000   0.0000000   0.0000000   0.0000000   0.0000000
 NQMom=    0.0000000   0.0000000   0.0000000   0.0000000   0.0000000   0.0000000   0.0000000   0.0000000   0.0000000   0.0000000
 NMagM=    2.7928460   2.7928460   0.0000000   2.7928460   2.7928460   0.0000000   2.7928460   2.7928460   0.0000000   2.7928460
 AtZNuc=   1.0000000   1.0000000   8.0000000   1.0000000   1.0000000   8.0000000   1.0000000   1.0000000   8.0000000   1.0000000

  Atom        31          32          33          34          35          36          37          38          39          40
 IAtWgt=           1          16           1           1          16           1           1          16           1           1
 AtmWgt=   1.0078250  15.9949146   1.0078250   1.0078250  15.9949146   1.0078250   1.0078250  15.9949146   1.0078250   1.0078250
 NucSpn=           1           0           1           1           0           1           1           0           1           1
 AtZEff=   0.0000000   0.0000000   0.0000000   0.0000000   0.0000000   0.0000000   0.0000000   0.0000000   0.0000000   0.0000000
 NQMom=    0.0000000   0.0000000   0.0000000   0.0000000   0.0000000   0.0000000   0.0000000   0.0000000   0.0000000   0.0000000
 NMagM=    2.7928460   0.0000000   2.7928460   2.7928460   0.0000000   2.7928460   2.7928460   0.0000000   2.7928460   2.7928460
 AtZNuc=   1.0000000   8.0000000   1.0000000   1.0000000   8.0000000   1.0000000   1.0000000   8.0000000   1.0000000   1.0000000

  Atom        41          42          43          44          45          46          47          48          49          50
 IAtWgt=          16           1           1          16           1           1          16           1           1          16
 AtmWgt=  15.9949146   1.0078250   1.0078250  15.9949146   1.0078250   1.0078250  15.9949146   1.0078250   1.0078250  15.9949146
 NucSpn=           0           1           1           0           1           1           0           1           1           0
 AtZEff=   0.0000000   0.0000000   0.0000000   0.0000000   0.0000000   0.0000000   0.0000000   0.0000000   0.0000000   0.0000000
 NQMom=    0.0000000   0.0000000   0.0000000   0.0000000   0.0000000   0.0000000   0.0000000   0.0000000   0.0000000   0.0000000
 NMagM=    0.0000000   2.7928460   2.7928460   0.0000000   2.7928460   2.7928460   0.0000000   2.7928460   2.7928460   0.0000000
 AtZNuc=   8.0000000   1.0000000   1.0000000   8.0000000   1.0000000   1.0000000   8.0000000   1.0000000   1.0000000   8.0000000

  Atom        51          52          53          54          55          56          57          58          59          60
 IAtWgt=           1           1          16           1           1          16           1           1          16           1
 AtmWgt=   1.0078250   1.0078250  15.9949146   1.0078250   1.0078250  15.9949146   1.0078250   1.0078250  15.9949146   1.0078250
 NucSpn=           1           1           0           1           1           0           1           1           0           1
 AtZEff=   0.0000000   0.0000000   0.0000000   0.0000000   0.0000000   0.0000000   0.0000000   0.0000000   0.0000000   0.0000000
 NQMom=    0.0000000   0.0000000   0.0000000   0.0000000   0.0000000   0.0000000   0.0000000   0.0000000   0.0000000   0.0000000
 NMagM=    2.7928460   2.7928460   0.0000000   2.7928460   2.7928460   0.0000000   2.7928460   2.7928460   0.0000000   2.7928460
 AtZNuc=   1.0000000   1.0000000   8.0000000   1.0000000   1.0000000   8.0000000   1.0000000   1.0000000   8.0000000   1.0000000

  Atom        61          62          63          64          65          66          67          68          69          70
 IAtWgt=           1          16           1           1          16           1           1          16           1           1
 AtmWgt=   1.0078250  15.9949146   1.0078250   1.0078250  15.9949146   1.0078250   1.0078250  15.9949146   1.0078250   1.0078250
 NucSpn=           1           0           1           1           0           1           1           0           1           1
 AtZEff=   0.0000000   0.0000000   0.0000000   0.0000000   0.0000000   0.0000000   0.0000000   0.0000000   0.0000000   0.0000000
 NQMom=    0.0000000   0.0000000   0.0000000   0.0000000   0.0000000   0.0000000   0.0000000   0.0000000   0.0000000   0.0000000
 NMagM=    2.7928460   0.0000000   2.7928460   2.7928460   0.0000000   2.7928460   2.7928460   0.0000000   2.7928460   2.7928460
 AtZNuc=   1.0000000   8.0000000   1.0000000   1.0000000   8.0000000   1.0000000   1.0000000   8.0000000   1.0000000   1.0000000

  Atom        71          72          73          74          75          76          77          78          79          80
 IAtWgt=          16           1           1          16           1           1          16           1           1          16
 AtmWgt=  15.9949146   1.0078250   1.0078250  15.9949146   1.0078250   1.0078250  15.9949146   1.0078250   1.0078250  15.9949146
 NucSpn=           0           1           1           0           1           1           0           1           1           0
 AtZEff=   0.0000000   0.0000000   0.0000000   0.0000000   0.0000000   0.0000000   0.0000000   0.0000000   0.0000000   0.0000000
 NQMom=    0.0000000   0.0000000   0.0000000   0.0000000   0.0000000   0.0000000   0.0000000   0.0000000   0.0000000   0.0000000
 NMagM=    0.0000000   2.7928460   2.7928460   0.0000000   2.7928460   2.7928460   0.0000000   2.7928460   2.7928460   0.0000000
 AtZNuc=   8.0000000   1.0000000   1.0000000   8.0000000   1.0000000   1.0000000   8.0000000   1.0000000   1.0000000   8.0000000

  Atom        81          82          83          84          85          86          87          88          89          90
 IAtWgt=           1           1          16           1           1          16           1           1          16           1
 AtmWgt=   1.0078250   1.0078250  15.9949146   1.0078250   1.0078250  15.9949146   1.0078250   1.0078250  15.9949146   1.0078250
 NucSpn=           1           1           0           1           1           0           1           1           0           1
 AtZEff=   0.0000000   0.0000000   0.0000000   0.0000000   0.0000000   0.0000000   0.0000000   0.0000000   0.0000000   0.0000000
 NQMom=    0.0000000   0.0000000   0.0000000   0.0000000   0.0000000   0.0000000   0.0000000   0.0000000   0.0000000   0.0000000
 NMagM=    2.7928460   2.7928460   0.0000000   2.7928460   2.7928460   0.0000000   2.7928460   2.7928460   0.0000000   2.7928460
 AtZNuc=   1.0000000   1.0000000   8.0000000   1.0000000   1.0000000   8.0000000   1.0000000   1.0000000   8.0000000   1.0000000

  Atom        91          92          93          94          95          96          97          98          99         100
 IAtWgt=           1          16           1           1          16           1           1          16           1           1
 AtmWgt=   1.0078250  15.9949146   1.0078250   1.0078250  15.9949146   1.0078250   1.0078250  15.9949146   1.0078250   1.0078250
 NucSpn=           1           0           1           1           0           1           1           0           1           1
 AtZEff=   0.0000000   0.0000000   0.0000000   0.0000000   0.0000000   0.0000000   0.0000000   0.0000000   0.0000000   0.0000000
 NQMom=    0.0000000   0.0000000   0.0000000   0.0000000   0.0000000   0.0000000   0.0000000   0.0000000   0.0000000   0.0000000
 NMagM=    2.7928460   0.0000000   2.7928460   2.7928460   0.0000000   2.7928460   2.7928460   0.0000000   2.7928460   2.7928460
 AtZNuc=   1.0000000   8.0000000   1.0000000   1.0000000   8.0000000   1.0000000   1.0000000   8.0000000   1.0000000   1.0000000

  Atom       101         102         103         104         105         106         107         108         109         110
 IAtWgt=          16           1           1          16           1           1          16           1           1          16
 AtmWgt=  15.9949146   1.0078250   1.0078250  15.9949146   1.0078250   1.0078250  15.9949146   1.0078250   1.0078250  15.9949146
 NucSpn=           0           1           1           0           1           1           0           1           1           0
 AtZEff=   0.0000000   0.0000000   0.0000000   0.0000000   0.0000000   0.0000000   0.0000000   0.0000000   0.0000000   0.0000000
 NQMom=    0.0000000   0.0000000   0.0000000   0.0000000   0.0000000   0.0000000   0.0000000   0.0000000   0.0000000   0.0000000
 NMagM=    0.0000000   2.7928460   2.7928460   0.0000000   2.7928460   2.7928460   0.0000000   2.7928460   2.7928460   0.0000000
 AtZNuc=   8.0000000   1.0000000   1.0000000   8.0000000   1.0000000   1.0000000   8.0000000   1.0000000   1.0000000   8.0000000

  Atom       111         112         113         114         115         116         117         118         119         120
 IAtWgt=           1           1          16           1           1          16           1           1          16           1
 AtmWgt=   1.0078250   1.0078250  15.9949146   1.0078250   1.0078250  15.9949146   1.0078250   1.0078250  15.9949146   1.0078250
 NucSpn=           1           1           0           1           1           0           1           1           0           1
 AtZEff=   0.0000000   0.0000000   0.0000000   0.0000000   0.0000000   0.0000000   0.0000000   0.0000000   0.0000000   0.0000000
 NQMom=    0.0000000   0.0000000   0.0000000   0.0000000   0.0000000   0.0000000   0.0000000   0.0000000   0.0000000   0.0000000
 NMagM=    2.7928460   2.7928460   0.0000000   2.7928460   2.7928460   0.0000000   2.7928460   2.7928460   0.0000000   2.7928460
 AtZNuc=   1.0000000   1.0000000   8.0000000   1.0000000   1.0000000   8.0000000   1.0000000   1.0000000   8.0000000   1.0000000

  Atom       121         122         123         124         125         126         127         128         129         130
 IAtWgt=           1          16           1           1          16           1           1          16           1           1
 AtmWgt=   1.0078250  15.9949146   1.0078250   1.0078250  15.9949146   1.0078250   1.0078250  15.9949146   1.0078250   1.0078250
 NucSpn=           1           0           1           1           0           1           1           0           1           1
 AtZEff=   0.0000000   0.0000000   0.0000000   0.0000000   0.0000000   0.0000000   0.0000000   0.0000000   0.0000000   0.0000000
 NQMom=    0.0000000   0.0000000   0.0000000   0.0000000   0.0000000   0.0000000   0.0000000   0.0000000   0.0000000   0.0000000
 NMagM=    2.7928460   0.0000000   2.7928460   2.7928460   0.0000000   2.7928460   2.7928460   0.0000000   2.7928460   2.7928460
 AtZNuc=   1.0000000   8.0000000   1.0000000   1.0000000   8.0000000   1.0000000   1.0000000   8.0000000   1.0000000   1.0000000

  Atom       131         132         133         134         135         136         137         138         139         140
 IAtWgt=          16           1           1          16           1           1          16           1           1          16
 AtmWgt=  15.9949146   1.0078250   1.0078250  15.9949146   1.0078250   1.0078250  15.9949146   1.0078250   1.0078250  15.9949146
 NucSpn=           0           1           1           0           1           1           0           1           1           0
 AtZEff=   0.0000000   0.0000000   0.0000000   0.0000000   0.0000000   0.0000000   0.0000000   0.0000000   0.0000000   0.0000000
 NQMom=    0.0000000   0.0000000   0.0000000   0.0000000   0.0000000   0.0000000   0.0000000   0.0000000   0.0000000   0.0000000
 NMagM=    0.0000000   2.7928460   2.7928460   0.0000000   2.7928460   2.7928460   0.0000000   2.7928460   2.7928460   0.0000000
 AtZNuc=   8.0000000   1.0000000   1.0000000   8.0000000   1.0000000   1.0000000   8.0000000   1.0000000   1.0000000   8.0000000

  Atom       141         142         143         144         145         146         147         148         149         150
 IAtWgt=           1           1          16           1           1          16           1           1          16           1
 AtmWgt=   1.0078250   1.0078250  15.9949146   1.0078250   1.0078250  15.9949146   1.0078250   1.0078250  15.9949146   1.0078250
 NucSpn=           1           1           0           1           1           0           1           1           0           1
 AtZEff=   0.0000000   0.0000000   0.0000000   0.0000000   0.0000000   0.0000000   0.0000000   0.0000000   0.0000000   0.0000000
 NQMom=    0.0000000   0.0000000   0.0000000   0.0000000   0.0000000   0.0000000   0.0000000   0.0000000   0.0000000   0.0000000
 NMagM=    2.7928460   2.7928460   0.0000000   2.7928460   2.7928460   0.0000000   2.7928460   2.7928460   0.0000000   2.7928460
 AtZNuc=   1.0000000   1.0000000   8.0000000   1.0000000   1.0000000   8.0000000   1.0000000   1.0000000   8.0000000   1.0000000

  Atom       151         152         153         154         155         156         157         158         159         160
 IAtWgt=           1          16           1           1          16           1           1          16           1           1
 AtmWgt=   1.0078250  15.9949146   1.0078250   1.0078250  15.9949146   1.0078250   1.0078250  15.9949146   1.0078250   1.0078250
 NucSpn=           1           0           1           1           0           1           1           0           1           1
 AtZEff=   0.0000000   0.0000000   0.0000000   0.0000000   0.0000000   0.0000000   0.0000000   0.0000000   0.0000000   0.0000000
 NQMom=    0.0000000   0.0000000   0.0000000   0.0000000   0.0000000   0.0000000   0.0000000   0.0000000   0.0000000   0.0000000
 NMagM=    2.7928460   0.0000000   2.7928460   2.7928460   0.0000000   2.7928460   2.7928460   0.0000000   2.7928460   2.7928460
 AtZNuc=   1.0000000   8.0000000   1.0000000   1.0000000   8.0000000   1.0000000   1.0000000   8.0000000   1.0000000   1.0000000

  Atom       161         162         163         164         165         166         167         168         169         170
 IAtWgt=          16           1           1          16           1           1          16           1           1          16
 AtmWgt=  15.9949146   1.0078250   1.0078250  15.9949146   1.0078250   1.0078250  15.9949146   1.0078250   1.0078250  15.9949146
 NucSpn=           0           1           1           0           1           1           0           1           1           0
 AtZEff=   0.0000000   0.0000000   0.0000000   0.0000000   0.0000000   0.0000000   0.0000000   0.0000000   0.0000000   0.0000000
 NQMom=    0.0000000   0.0000000   0.0000000   0.0000000   0.0000000   0.0000000   0.0000000   0.0000000   0.0000000   0.0000000
 NMagM=    0.0000000   2.7928460   2.7928460   0.0000000   2.7928460   2.7928460   0.0000000   2.7928460   2.7928460   0.0000000
 AtZNuc=   8.0000000   1.0000000   1.0000000   8.0000000   1.0000000   1.0000000   8.0000000   1.0000000   1.0000000   8.0000000

  Atom       171         172         173         174         175         176         177         178         179         180
 IAtWgt=           1           1          16           1           1          16           1           1          16           1
 AtmWgt=   1.0078250   1.0078250  15.9949146   1.0078250   1.0078250  15.9949146   1.0078250   1.0078250  15.9949146   1.0078250
 NucSpn=           1           1           0           1           1           0           1           1           0           1
 AtZEff=   0.0000000   0.0000000   0.0000000   0.0000000   0.0000000   0.0000000   0.0000000   0.0000000   0.0000000   0.0000000
 NQMom=    0.0000000   0.0000000   0.0000000   0.0000000   0.0000000   0.0000000   0.0000000   0.0000000   0.0000000   0.0000000
 NMagM=    2.7928460   2.7928460   0.0000000   2.7928460   2.7928460   0.0000000   2.7928460   2.7928460   0.0000000   2.7928460
 AtZNuc=   1.0000000   1.0000000   8.0000000   1.0000000   1.0000000   8.0000000   1.0000000   1.0000000   8.0000000   1.0000000

  Atom       181         182         183         184         185         186         187         188         189         190
 IAtWgt=           1          16           1           1          16           1           1          16           1           1
 AtmWgt=   1.0078250  15.9949146   1.0078250   1.0078250  15.9949146   1.0078250   1.0078250  15.9949146   1.0078250   1.0078250
 NucSpn=           1           0           1           1           0           1           1           0           1           1
 AtZEff=   0.0000000   0.0000000   0.0000000   0.0000000   0.0000000   0.0000000   0.0000000   0.0000000   0.0000000   0.0000000
 NQMom=    0.0000000   0.0000000   0.0000000   0.0000000   0.0000000   0.0000000   0.0000000   0.0000000   0.0000000   0.0000000
 NMagM=    2.7928460   0.0000000   2.7928460   2.7928460   0.0000000   2.7928460   2.7928460   0.0000000   2.7928460   2.7928460
 AtZNuc=   1.0000000   8.0000000   1.0000000   1.0000000   8.0000000   1.0000000   1.0000000   8.0000000   1.0000000   1.0000000

  Atom       191         192         193         194         195         196         197         198         199         200
 IAtWgt=          16           1           1          16           1           1          16           1           1          16
 AtmWgt=  15.9949146   1.0078250   1.0078250  15.9949146   1.0078250   1.0078250  15.9949146   1.0078250   1.0078250  15.9949146
 NucSpn=           0           1           1           0           1           1           0           1           1           0
 AtZEff=   0.0000000   0.0000000   0.0000000   0.0000000   0.0000000   0.0000000   0.0000000   0.0000000   0.0000000   0.0000000
 NQMom=    0.0000000   0.0000000   0.0000000   0.0000000   0.0000000   0.0000000   0.0000000   0.0000000   0.0000000   0.0000000
 NMagM=    0.0000000   2.7928460   2.7928460   0.0000000   2.7928460   2.7928460   0.0000000   2.7928460   2.7928460   0.0000000
 AtZNuc=   8.0000000   1.0000000   1.0000000   8.0000000   1.0000000   1.0000000   8.0000000   1.0000000   1.0000000   8.0000000

  Atom       201         202         203         204         205         206         207         208         209         210
 IAtWgt=           1           1          16           1           1          16           1           1          16           1
 AtmWgt=   1.0078250   1.0078250  15.9949146   1.0078250   1.0078250  15.9949146   1.0078250   1.0078250  15.9949146   1.0078250
 NucSpn=           1           1           0           1           1           0           1           1           0           1
 AtZEff=   0.0000000   0.0000000   0.0000000   0.0000000   0.0000000   0.0000000   0.0000000   0.0000000   0.0000000   0.0000000
 NQMom=    0.0000000   0.0000000   0.0000000   0.0000000   0.0000000   0.0000000   0.0000000   0.0000000   0.0000000   0.0000000
 NMagM=    2.7928460   2.7928460   0.0000000   2.7928460   2.7928460   0.0000000   2.7928460   2.7928460   0.0000000   2.7928460
 AtZNuc=   1.0000000   1.0000000   8.0000000   1.0000000   1.0000000   8.0000000   1.0000000   1.0000000   8.0000000   1.0000000

  Atom       211         212         213         214         215         216         217         218         219         220
 IAtWgt=           1          16           1           1          16           1           1          16           1           1
 AtmWgt=   1.0078250  15.9949146   1.0078250   1.0078250  15.9949146   1.0078250   1.0078250  15.9949146   1.0078250   1.0078250
 NucSpn=           1           0           1           1           0           1           1           0           1           1
 AtZEff=   0.0000000   0.0000000   0.0000000   0.0000000   0.0000000   0.0000000   0.0000000   0.0000000   0.0000000   0.0000000
 NQMom=    0.0000000   0.0000000   0.0000000   0.0000000   0.0000000   0.0000000   0.0000000   0.0000000   0.0000000   0.0000000
 NMagM=    2.7928460   0.0000000   2.7928460   2.7928460   0.0000000   2.7928460   2.7928460   0.0000000   2.7928460   2.7928460
 AtZNuc=   1.0000000   8.0000000   1.0000000   1.0000000   8.0000000   1.0000000   1.0000000   8.0000000   1.0000000   1.0000000

  Atom       221         222         223         224         225         226         227         228         229         230
 IAtWgt=          16           1           1          16           1           1          16           1           1          16
 AtmWgt=  15.9949146   1.0078250   1.0078250  15.9949146   1.0078250   1.0078250  15.9949146   1.0078250   1.0078250  15.9949146
 NucSpn=           0           1           1           0           1           1           0           1           1           0
 AtZEff=   0.0000000   0.0000000   0.0000000   0.0000000   0.0000000   0.0000000   0.0000000   0.0000000   0.0000000   0.0000000
 NQMom=    0.0000000   0.0000000   0.0000000   0.0000000   0.0000000   0.0000000   0.0000000   0.0000000   0.0000000   0.0000000
 NMagM=    0.0000000   2.7928460   2.7928460   0.0000000   2.7928460   2.7928460   0.0000000   2.7928460   2.7928460   0.0000000
 AtZNuc=   8.0000000   1.0000000   1.0000000   8.0000000   1.0000000   1.0000000   8.0000000   1.0000000   1.0000000   8.0000000

  Atom       231         232         233         234         235         236         237         238         239         240
 IAtWgt=           1           1          16           1           1          16           1           1          16           1
 AtmWgt=   1.0078250   1.0078250  15.9949146   1.0078250   1.0078250  15.9949146   1.0078250   1.0078250  15.9949146   1.0078250
 NucSpn=           1           1           0           1           1           0           1           1           0           1
 AtZEff=   0.0000000   0.0000000   0.0000000   0.0000000   0.0000000   0.0000000   0.0000000   0.0000000   0.0000000   0.0000000
 NQMom=    0.0000000   0.0000000   0.0000000   0.0000000   0.0000000   0.0000000   0.0000000   0.0000000   0.0000000   0.0000000
 NMagM=    2.7928460   2.7928460   0.0000000   2.7928460   2.7928460   0.0000000   2.7928460   2.7928460   0.0000000   2.7928460
 AtZNuc=   1.0000000   1.0000000   8.0000000   1.0000000   1.0000000   8.0000000   1.0000000   1.0000000   8.0000000   1.0000000

  Atom       241         242         243         244         245         246         247         248         249         250
 IAtWgt=           1          16           1           1          16           1           1          16           1           1
 AtmWgt=   1.0078250  15.9949146   1.0078250   1.0078250  15.9949146   1.0078250   1.0078250  15.9949146   1.0078250   1.0078250
 NucSpn=           1           0           1           1           0           1           1           0           1           1
 AtZEff=   0.0000000   0.0000000   0.0000000   0.0000000   0.0000000   0.0000000   0.0000000   0.0000000   0.0000000   0.0000000
 NQMom=    0.0000000   0.0000000   0.0000000   0.0000000   0.0000000   0.0000000   0.0000000   0.0000000   0.0000000   0.0000000
 NMagM=    2.7928460   0.0000000   2.7928460   2.7928460   0.0000000   2.7928460   2.7928460   0.0000000   2.7928460   2.7928460
 AtZNuc=   1.0000000   8.0000000   1.0000000   1.0000000   8.0000000   1.0000000   1.0000000   8.0000000   1.0000000   1.0000000

  Atom       251         252         253         254         255         256         257         258         259         260
 IAtWgt=          16           1           1          16           1           1          16           1           1          16
 AtmWgt=  15.9949146   1.0078250   1.0078250  15.9949146   1.0078250   1.0078250  15.9949146   1.0078250   1.0078250  15.9949146
 NucSpn=           0           1           1           0           1           1           0           1           1           0
 AtZEff=   0.0000000   0.0000000   0.0000000   0.0000000   0.0000000   0.0000000   0.0000000   0.0000000   0.0000000   0.0000000
 NQMom=    0.0000000   0.0000000   0.0000000   0.0000000   0.0000000   0.0000000   0.0000000   0.0000000   0.0000000   0.0000000
 NMagM=    0.0000000   2.7928460   2.7928460   0.0000000   2.7928460   2.7928460   0.0000000   2.7928460   2.7928460   0.0000000
 AtZNuc=   8.0000000   1.0000000   1.0000000   8.0000000   1.0000000   1.0000000   8.0000000   1.0000000   1.0000000   8.0000000

  Atom       261         262         263         264         265         266         267         268         269         270
 IAtWgt=           1           1          16           1           1          16           1           1          16           1
 AtmWgt=   1.0078250   1.0078250  15.9949146   1.0078250   1.0078250  15.9949146   1.0078250   1.0078250  15.9949146   1.0078250
 NucSpn=           1           1           0           1           1           0           1           1           0           1
 AtZEff=   0.0000000   0.0000000   0.0000000   0.0000000   0.0000000   0.0000000   0.0000000   0.0000000   0.0000000   0.0000000
 NQMom=    0.0000000   0.0000000   0.0000000   0.0000000   0.0000000   0.0000000   0.0000000   0.0000000   0.0000000   0.0000000
 NMagM=    2.7928460   2.7928460   0.0000000   2.7928460   2.7928460   0.0000000   2.7928460   2.7928460   0.0000000   2.7928460
 AtZNuc=   1.0000000   1.0000000   8.0000000   1.0000000   1.0000000   8.0000000   1.0000000   1.0000000   8.0000000   1.0000000

  Atom       271         272         273         274         275         276         277         278         279         280
 IAtWgt=           1          16           1           1          16           1           1          16           1           1
 AtmWgt=   1.0078250  15.9949146   1.0078250   1.0078250  15.9949146   1.0078250   1.0078250  15.9949146   1.0078250   1.0078250
 NucSpn=           1           0           1           1           0           1           1           0           1           1
 AtZEff=   0.0000000   0.0000000   0.0000000   0.0000000   0.0000000   0.0000000   0.0000000   0.0000000   0.0000000   0.0000000
 NQMom=    0.0000000   0.0000000   0.0000000   0.0000000   0.0000000   0.0000000   0.0000000   0.0000000   0.0000000   0.0000000
 NMagM=    2.7928460   0.0000000   2.7928460   2.7928460   0.0000000   2.7928460   2.7928460   0.0000000   2.7928460   2.7928460
 AtZNuc=   1.0000000   8.0000000   1.0000000   1.0000000   8.0000000   1.0000000   1.0000000   8.0000000   1.0000000   1.0000000

  Atom       281         282         283         284         285         286         287         288         289         290
 IAtWgt=          16           1           1          16           1           1          16           1           1          16
 AtmWgt=  15.9949146   1.0078250   1.0078250  15.9949146   1.0078250   1.0078250  15.9949146   1.0078250   1.0078250  15.9949146
 NucSpn=           0           1           1           0           1           1           0           1           1           0
 AtZEff=   0.0000000   0.0000000   0.0000000   0.0000000   0.0000000   0.0000000   0.0000000   0.0000000   0.0000000   0.0000000
 NQMom=    0.0000000   0.0000000   0.0000000   0.0000000   0.0000000   0.0000000   0.0000000   0.0000000   0.0000000   0.0000000
 NMagM=    0.0000000   2.7928460   2.7928460   0.0000000   2.7928460   2.7928460   0.0000000   2.7928460   2.7928460   0.0000000
 AtZNuc=   8.0000000   1.0000000   1.0000000   8.0000000   1.0000000   1.0000000   8.0000000   1.0000000   1.0000000   8.0000000

  Atom       291         292         293         294         295         296         297         298         299         300
 IAtWgt=           1           1          16           1           1          16           1           1          16           1
 AtmWgt=   1.0078250   1.0078250  15.9949146   1.0078250   1.0078250  15.9949146   1.0078250   1.0078250  15.9949146   1.0078250
 NucSpn=           1           1           0           1           1           0           1           1           0           1
 AtZEff=   0.0000000   0.0000000   0.0000000   0.0000000   0.0000000   0.0000000   0.0000000   0.0000000   0.0000000   0.0000000
 NQMom=    0.0000000   0.0000000   0.0000000   0.0000000   0.0000000   0.0000000   0.0000000   0.0000000   0.0000000   0.0000000
 NMagM=    2.7928460   2.7928460   0.0000000   2.7928460   2.7928460   0.0000000   2.7928460   2.7928460   0.0000000   2.7928460
 AtZNuc=   1.0000000   1.0000000   8.0000000   1.0000000   1.0000000   8.0000000   1.0000000   1.0000000   8.0000000   1.0000000

  Atom       301         302         303         304         305         306         307         308         309         310
 IAtWgt=           1          16           1           1          16           1           1          16           1           1
 AtmWgt=   1.0078250  15.9949146   1.0078250   1.0078250  15.9949146   1.0078250   1.0078250  15.9949146   1.0078250   1.0078250
 NucSpn=           1           0           1           1           0           1           1           0           1           1
 AtZEff=   0.0000000   0.0000000   0.0000000   0.0000000   0.0000000   0.0000000   0.0000000   0.0000000   0.0000000   0.0000000
 NQMom=    0.0000000   0.0000000   0.0000000   0.0000000   0.0000000   0.0000000   0.0000000   0.0000000   0.0000000   0.0000000
 NMagM=    2.7928460   0.0000000   2.7928460   2.7928460   0.0000000   2.7928460   2.7928460   0.0000000   2.7928460   2.7928460
 AtZNuc=   1.0000000   8.0000000   1.0000000   1.0000000   8.0000000   1.0000000   1.0000000   8.0000000   1.0000000   1.0000000

  Atom       311         312         313         314         315         316         317         318         319         320
 IAtWgt=          16           1           1          16           1           1          16           1           1          16
 AtmWgt=  15.9949146   1.0078250   1.0078250  15.9949146   1.0078250   1.0078250  15.9949146   1.0078250   1.0078250  15.9949146
 NucSpn=           0           1           1           0           1           1           0           1           1           0
 AtZEff=   0.0000000   0.0000000   0.0000000   0.0000000   0.0000000   0.0000000   0.0000000   0.0000000   0.0000000   0.0000000
 NQMom=    0.0000000   0.0000000   0.0000000   0.0000000   0.0000000   0.0000000   0.0000000   0.0000000   0.0000000   0.0000000
 NMagM=    0.0000000   2.7928460   2.7928460   0.0000000   2.7928460   2.7928460   0.0000000   2.7928460   2.7928460   0.0000000
 AtZNuc=   8.0000000   1.0000000   1.0000000   8.0000000   1.0000000   1.0000000   8.0000000   1.0000000   1.0000000   8.0000000

  Atom       321         322         323         324         325         326         327         328         329         330
 IAtWgt=           1           1          16           1           1          16           1           1          16           1
 AtmWgt=   1.0078250   1.0078250  15.9949146   1.0078250   1.0078250  15.9949146   1.0078250   1.0078250  15.9949146   1.0078250
 NucSpn=           1           1           0           1           1           0           1           1           0           1
 AtZEff=   0.0000000   0.0000000   0.0000000   0.0000000   0.0000000   0.0000000   0.0000000   0.0000000   0.0000000   0.0000000
 NQMom=    0.0000000   0.0000000   0.0000000   0.0000000   0.0000000   0.0000000   0.0000000   0.0000000   0.0000000   0.0000000
 NMagM=    2.7928460   2.7928460   0.0000000   2.7928460   2.7928460   0.0000000   2.7928460   2.7928460   0.0000000   2.7928460
 AtZNuc=   1.0000000   1.0000000   8.0000000   1.0000000   1.0000000   8.0000000   1.0000000   1.0000000   8.0000000   1.0000000

  Atom       331         332         333         334         335         336         337         338         339         340
 IAtWgt=           1          16           1           1          16           1           1          16           1           1
 AtmWgt=   1.0078250  15.9949146   1.0078250   1.0078250  15.9949146   1.0078250   1.0078250  15.9949146   1.0078250   1.0078250
 NucSpn=           1           0           1           1           0           1           1           0           1           1
 AtZEff=   0.0000000   0.0000000   0.0000000   0.0000000   0.0000000   0.0000000   0.0000000   0.0000000   0.0000000   0.0000000
 NQMom=    0.0000000   0.0000000   0.0000000   0.0000000   0.0000000   0.0000000   0.0000000   0.0000000   0.0000000   0.0000000
 NMagM=    2.7928460   0.0000000   2.7928460   2.7928460   0.0000000   2.7928460   2.7928460   0.0000000   2.7928460   2.7928460
 AtZNuc=   1.0000000   8.0000000   1.0000000   1.0000000   8.0000000   1.0000000   1.0000000   8.0000000   1.0000000   1.0000000

  Atom       341         342         343         344         345         346         347         348         349         350
 IAtWgt=          16           1           1          16           1           1          16           1           1          16
 AtmWgt=  15.9949146   1.0078250   1.0078250  15.9949146   1.0078250   1.0078250  15.9949146   1.0078250   1.0078250  15.9949146
 NucSpn=           0           1           1           0           1           1           0           1           1           0
 AtZEff=   0.0000000   0.0000000   0.0000000   0.0000000   0.0000000   0.0000000   0.0000000   0.0000000   0.0000000   0.0000000
 NQMom=    0.0000000   0.0000000   0.0000000   0.0000000   0.0000000   0.0000000   0.0000000   0.0000000   0.0000000   0.0000000
 NMagM=    0.0000000   2.7928460   2.7928460   0.0000000   2.7928460   2.7928460   0.0000000   2.7928460   2.7928460   0.0000000
 AtZNuc=   8.0000000   1.0000000   1.0000000   8.0000000   1.0000000   1.0000000   8.0000000   1.0000000   1.0000000   8.0000000

  Atom       351         352         353         354         355         356         357         358         359         360
 IAtWgt=           1           1          16           1           1          16           1           1          16           1
 AtmWgt=   1.0078250   1.0078250  15.9949146   1.0078250   1.0078250  15.9949146   1.0078250   1.0078250  15.9949146   1.0078250
 NucSpn=           1           1           0           1           1           0           1           1           0           1
 AtZEff=   0.0000000   0.0000000   0.0000000   0.0000000   0.0000000   0.0000000   0.0000000   0.0000000   0.0000000   0.0000000
 NQMom=    0.0000000   0.0000000   0.0000000   0.0000000   0.0000000   0.0000000   0.0000000   0.0000000   0.0000000   0.0000000
 NMagM=    2.7928460   2.7928460   0.0000000   2.7928460   2.7928460   0.0000000   2.7928460   2.7928460   0.0000000   2.7928460
 AtZNuc=   1.0000000   1.0000000   8.0000000   1.0000000   1.0000000   8.0000000   1.0000000   1.0000000   8.0000000   1.0000000

  Atom       361         362         363         364         365         366         367         368         369         370
 IAtWgt=           1          16           1           1          16           1           1          16           1           1
 AtmWgt=   1.0078250  15.9949146   1.0078250   1.0078250  15.9949146   1.0078250   1.0078250  15.9949146   1.0078250   1.0078250
 NucSpn=           1           0           1           1           0           1           1           0           1           1
 AtZEff=   0.0000000   0.0000000   0.0000000   0.0000000   0.0000000   0.0000000   0.0000000   0.0000000   0.0000000   0.0000000
 NQMom=    0.0000000   0.0000000   0.0000000   0.0000000   0.0000000   0.0000000   0.0000000   0.0000000   0.0000000   0.0000000
 NMagM=    2.7928460   0.0000000   2.7928460   2.7928460   0.0000000   2.7928460   2.7928460   0.0000000   2.7928460   2.7928460
 AtZNuc=   1.0000000   8.0000000   1.0000000   1.0000000   8.0000000   1.0000000   1.0000000   8.0000000   1.0000000   1.0000000

  Atom       371         372         373         374         375         376         377         378         379         380
 IAtWgt=          16           1           1          16           1           1          16           1           1          16
 AtmWgt=  15.9949146   1.0078250   1.0078250  15.9949146   1.0078250   1.0078250  15.9949146   1.0078250   1.0078250  15.9949146
 NucSpn=           0           1           1           0           1           1           0           1           1           0
 AtZEff=   0.0000000   0.0000000   0.0000000   0.0000000   0.0000000   0.0000000   0.0000000   0.0000000   0.0000000   0.0000000
 NQMom=    0.0000000   0.0000000   0.0000000   0.0000000   0.0000000   0.0000000   0.0000000   0.0000000   0.0000000   0.0000000
 NMagM=    0.0000000   2.7928460   2.7928460   0.0000000   2.7928460   2.7928460   0.0000000   2.7928460   2.7928460   0.0000000
 AtZNuc=   8.0000000   1.0000000   1.0000000   8.0000000   1.0000000   1.0000000   8.0000000   1.0000000   1.0000000   8.0000000

  Atom       381         382         383         384         385
 IAtWgt=           1           1          16           1           1
 AtmWgt=   1.0078250   1.0078250  15.9949146   1.0078250   1.0078250
 NucSpn=           1           1           0           1           1
 AtZEff=   0.0000000   0.0000000   0.0000000   0.0000000   0.0000000
 NQMom=    0.0000000   0.0000000   0.0000000   0.0000000   0.0000000
 NMagM=    2.7928460   2.7928460   0.0000000   2.7928460   2.7928460
 AtZNuc=   1.0000000   1.0000000   8.0000000   1.0000000   1.0000000
 Leave Link  101 at Sat May  5 10:19:40 2018, MaxMem= 14763950080 cpu:        33.3
 (Enter /cm/shared/gaussian/g09.e01/intel64-sandybridge/g09/l103.exe)

 GradGradGradGradGradGradGradGradGradGradGradGradGradGradGradGradGradGrad
 Berny optimization.
 Initialization pass.
 Trust Radius=3.00D-01 FncErr=1.00D-07 GrdErr=1.00D-07
 Number of steps in this run=      2 maximum allowed number of steps=      2.
 GradGradGradGradGradGradGradGradGradGradGradGradGradGradGradGradGradGrad

 Leave Link  103 at Sat May  5 10:19:40 2018, MaxMem= 14763950080 cpu:         3.7
 (Enter /cm/shared/gaussian/g09.e01/intel64-sandybridge/g09/l202.exe)
 Symmetry turned off by external request.
 Stoichiometry    BrH256O128(1-)
 Framework group  C1[X(BrH256O128)]
 Deg. of freedom  1149
 Full point group                 C1      NOp   1
                          Input orientation:                          
 ---------------------------------------------------------------------
 Center     Atomic      Atomic             Coordinates (Angstroms)
 Number     Number       Type             X           Y           Z
 ---------------------------------------------------------------------
      1         35           0       20.000000   20.000000   20.000000
      2          8           0       18.130000   17.740000   18.930000
      3          1           0       18.480000   18.440000   19.490000
      4          1           0       17.180000   17.810000   19.040000
      5          8           0       21.290000   22.580000   21.500000
      6          1           0       21.190000   21.720000   21.100000
      7          1           0       21.870000   23.060000   20.900000
      8          8           0       18.730000   21.240000   17.120000
      9          1           0       19.110000   20.740000   17.840000
     10          1           0       18.320000   22.000000   17.540000
     11          8           0       22.900000   20.420000   18.430000
     12          1           0       21.960000   20.360000   18.560000
     13          1           0       23.280000   20.120000   19.250000
     14          8           0       22.260000   18.380000   21.760000
     15          1           0       21.850000   18.660000   20.930000
     16          1           0       21.680000   18.730000   22.440000
     17          8           0       18.170000   22.830000   19.450000
     18          1           0       17.730000   23.380000   20.100000
     19          1           0       18.650000   22.180000   19.960000
     20          8           0       18.430000   18.380000   22.960000
     21          1           0       17.630000   17.870000   22.930000
     22          1           0       18.570000   18.670000   22.060000
     23          8           0       20.510000   19.660000   23.940000
     24          1           0       19.700000   19.230000   23.670000
     25          1           0       20.400000   19.840000   24.870000
     26          8           0       20.110000   24.210000   17.900000
     27          1           0       19.750000   24.000000   17.030000
     28          1           0       19.620000   23.660000   18.500000
     29          8           0       23.070000   23.460000   19.400000
     30          1           0       23.620000   24.080000   19.890000
     31          1           0       23.370000   22.600000   19.680000
     32          8           0       22.380000   22.600000   16.610000
     33          1           0       22.280000   21.670000   16.800000
     34          1           0       22.570000   23.000000   17.450000
     35          8           0       19.280000   19.300000   15.150000
     36          1           0       19.220000   20.020000   15.780000
     37          1           0       19.030000   19.700000   14.310000
     38          8           0       16.740000   20.690000   23.700000
     39          1           0       17.600000   21.010000   23.420000
     40          1           0       16.930000   20.030000   24.370000
     41          8           0       18.030000   16.840000   16.480000
     42          1           0       18.190000   17.110000   17.380000
     43          1           0       18.440000   17.530000   15.950000
     44          8           0       20.670000   22.710000   24.400000
     45          1           0       20.910000   22.220000   23.610000
     46          1           0       20.530000   22.030000   25.060000
     47          8           0       24.640000   19.620000   22.230000
     48          1           0       24.630000   19.860000   23.160000
     49          1           0       23.760000   19.290000   22.060000
     50          8           0       20.240000   16.520000   23.860000
     51          1           0       19.800000   17.150000   23.290000
     52          1           0       19.790000   15.690000   23.690000
     53          8           0       22.980000   17.160000   18.080000
     54          1           0       22.200000   16.770000   17.700000
     55          1           0       23.080000   18.000000   17.630000
     56          8           0       19.900000   24.620000   22.640000
     57          1           0       19.870000   24.000000   23.370000
     58          1           0       20.170000   24.090000   21.890000
     59          8           0       21.360000   14.800000   21.730000
     60          1           0       21.660000   15.690000   21.560000
     61          1           0       20.470000   14.910000   22.070000
     62          8           0       14.910000   19.270000   21.620000
     63          1           0       15.500000   19.500000   22.340000
     64          1           0       14.070000   19.100000   22.040000
     65          8           0       20.890000   15.540000   17.080000
     66          1           0       20.200000   15.220000   17.660000
     67          1           0       20.560000   15.360000   16.200000
     68          8           0       15.070000   18.190000   19.080000
     69          1           0       14.860000   18.480000   19.970000
     70          1           0       14.540000   18.760000   18.520000
     71          8           0       22.850000   16.980000   24.910000
     72          1           0       23.520000   16.490000   24.430000
     73          1           0       22.200000   17.210000   24.250000
     74          8           0       19.010000   26.210000   19.490000
     75          1           0       18.230000   26.670000   19.170000
     76          1           0       19.110000   25.470000   18.900000
     77          8           0       16.460000   24.310000   21.240000
     78          1           0       15.930000   24.250000   22.030000
     79          1           0       15.830000   24.450000   20.540000
     80          8           0       21.450000   17.650000   14.380000
     81          1           0       22.260000   18.150000   14.490000
     82          1           0       20.760000   18.260000   14.610000
     83          8           0       19.170000   22.210000   14.000000
     84          1           0       19.580000   22.540000   14.800000
     85          1           0       19.410000   22.850000   13.330000
     86          8           0       22.160000   26.120000   18.510000
     87          1           0       21.280000   25.780000   18.660000
     88          1           0       22.740000   25.400000   18.770000
     89          8           0       13.960000   22.210000   22.200000
     90          1           0       13.890000   21.260000   22.120000
     91          1           0       14.660000   22.450000   21.600000
     92          8           0       26.370000   17.480000   20.130000
     93          1           0       25.660000   17.650000   20.740000
     94          1           0       27.150000   17.840000   20.560000
     95          8           0       25.740000   18.630000   16.590000
     96          1           0       25.150000   19.280000   16.210000
     97          1           0       25.500000   18.610000   17.520000
     98          8           0       25.510000   15.730000   18.280000
     99          1           0       24.680000   16.200000   18.400000
    100          1           0       26.160000   16.260000   18.740000
    101          8           0       26.390000   21.890000   20.470000
    102          1           0       27.220000   21.470000   20.690000
    103          1           0       25.860000   21.810000   21.270000
    104          8           0       23.010000   25.160000   23.320000
    105          1           0       22.120000   25.140000   22.950000
    106          1           0       23.060000   26.020000   23.740000
    107          8           0       14.480000   22.920000   19.110000
    108          1           0       13.850000   22.210000   19.060000
    109          1           0       14.770000   23.050000   18.210000
    110          8           0       21.710000   23.720000   14.140000
    111          1           0       21.750000   23.590000   15.080000
    112          1           0       21.160000   24.490000   14.020000
    113          8           0       15.820000   16.950000   23.760000
    114          1           0       16.200000   16.170000   23.350000
    115          1           0       14.890000   16.920000   23.510000
    116          8           0       17.850000   14.150000   16.450000
    117          1           0       17.130000   14.110000   15.810000
    118          1           0       18.130000   15.060000   16.430000
    119          8           0       15.490000   16.140000   16.080000
    120          1           0       15.070000   17.000000   16.090000
    121          1           0       16.420000   16.330000   16.210000
    122          8           0       22.860000   14.890000   15.430000
    123          1           0       22.290000   15.260000   16.100000
    124          1           0       22.480000   14.030000   15.240000
    125          8           0       16.150000   22.990000   14.790000
    126          1           0       15.990000   23.920000   14.650000
    127          1           0       17.100000   22.920000   14.870000
    128          8           0       15.690000   15.130000   21.400000
    129          1           0       16.070000   14.430000   20.860000
    130          1           0       14.940000   15.440000   20.890000
    131          8           0       20.130000   20.720000   26.630000
    132          1           0       21.000000   20.840000   27.000000
    133          1           0       19.620000   21.460000   26.960000
    134          8           0       18.990000   14.060000   22.910000
    135          1           0       19.170000   13.210000   22.500000
    136          1           0       18.090000   13.980000   23.230000
    137          8           0       25.350000   23.930000   16.420000
    138          1           0       25.060000   24.550000   17.080000
    139          1           0       24.630000   23.300000   16.340000
    140          8           0       14.760000   22.620000   25.140000
    141          1           0       15.380000   22.130000   24.600000
    142          1           0       15.310000   23.150000   25.720000
    143          8           0       16.900000   17.600000   26.410000
    144          1           0       16.580000   17.590000   25.510000
    145          1           0       17.570000   16.910000   26.430000
    146          8           0       17.640000   16.560000   13.350000
    147          1           0       17.940000   16.700000   14.250000
    148          1           0       18.350000   16.900000   12.810000
    149          8           0       13.580000   19.840000   17.320000
    150          1           0       13.600000   20.690000   16.890000
    151          1           0       12.910000   19.340000   16.840000
    152          8           0       21.560000   24.670000   26.040000
    153          1           0       20.710000   24.950000   25.690000
    154          1           0       21.760000   23.860000   25.580000
    155          8           0       24.800000   14.540000   21.430000
    156          1           0       25.560000   14.370000   20.880000
    157          1           0       24.050000   14.330000   20.880000
    158          8           0       25.190000   23.410000   24.050000
    159          1           0       24.730000   24.070000   23.520000
    160          1           0       24.750000   23.440000   24.890000
    161          8           0       18.740000   15.610000   26.630000
    162          1           0       19.200000   16.350000   26.240000
    163          1           0       19.200000   14.840000   26.290000
    164          8           0       16.770000   20.430000   26.610000
    165          1           0       15.840000   20.480000   26.800000
    166          1           0       17.020000   19.530000   26.820000
    167          8           0       20.110000   27.810000   22.810000
    168          1           0       19.840000   26.960000   22.460000
    169          1           0       20.950000   27.990000   22.380000
    170          8           0       24.740000   15.160000   23.950000
    171          1           0       25.660000   15.150000   24.190000
    172          1           0       24.730000   15.140000   23.000000
    173          8           0       22.000000   21.710000   12.330000
    174          1           0       22.780000   22.090000   11.920000
    175          1           0       21.880000   22.230000   13.130000
    176          8           0       13.680000   21.910000   15.490000
    177          1           0       14.600000   22.070000   15.280000
    178          1           0       13.340000   21.450000   14.720000
    179          8           0       19.090000   26.280000   25.330000
    180          1           0       18.850000   26.110000   24.420000
    181          1           0       19.830000   26.890000   25.280000
    182          8           0       14.830000   14.340000   17.940000
    183          1           0       15.020000   14.920000   17.210000
    184          1           0       14.310000   14.870000   18.540000
    185          8           0       22.870000   12.290000   20.730000
    186          1           0       22.380000   12.860000   21.330000
    187          1           0       22.250000   12.110000   20.020000
    188          8           0       20.000000   19.460000   12.010000
    189          1           0       20.550000   18.770000   11.640000
    190          1           0       20.610000   20.090000   12.380000
    191          8           0       22.020000   14.940000   26.340000
    192          1           0       22.400000   15.630000   25.800000
    193          1           0       22.100000   14.140000   25.810000
    194          8           0       19.700000   25.390000   14.580000
    195          1           0       19.980000   26.210000   15.000000
    196          1           0       19.010000   25.660000   13.980000
    197          8           0       18.260000   22.430000   27.620000
    198          1           0       17.790000   21.770000   27.120000
    199          1           0       17.680000   23.200000   27.600000
    200          8           0       17.850000   21.110000   11.810000
    201          1           0       18.000000   21.350000   12.720000
    202          1           0       18.500000   20.430000   11.630000
    203          8           0       16.890000   12.980000   19.760000
    204          1           0       17.520000   12.430000   19.300000
    205          1           0       16.220000   13.170000   19.110000
    206          8           0       22.720000   21.450000   27.290000
    207          1           0       23.510000   21.970000   27.420000
[...]
   X336      22.88458  -0.00669   0.00000  -0.00793  -0.00751  22.87707
   Y336      29.64980   0.01208   0.00000   0.01272   0.01245  29.66226
   Z336      38.36144  -0.01045   0.00000  -0.01338  -0.01302  38.34842
   X337      23.16804   0.00008   0.00000  -0.00027   0.00025  23.16829
   Y337      26.79632  -0.00301   0.00000  -0.00373  -0.00398  26.79233
   Z337      38.49372   0.00277   0.00000   0.00504   0.00548  38.49920
   X338      51.89188  -0.00087   0.00000   0.00065   0.00118  51.89306
   Y338      31.97417  -0.01826   0.00000  -0.01579  -0.01482  31.95935
   Z338      46.43057   0.00421   0.00000   0.00391   0.00347  46.43404
   X339      51.55173  -0.00360   0.00000  -0.00615  -0.00563  51.54610
   Y339      33.14580   0.00887   0.00000   0.00749   0.00850  33.15429
   Z339      47.77228  -0.00020   0.00000  -0.00550  -0.00597  47.76631
   X340      52.42100   0.00238   0.00000  -0.00002   0.00044  52.42144
   Y340      33.01352   0.00835   0.00000   0.00360   0.00455  33.01807
   Z340      45.05107  -0.00613   0.00000  -0.00110  -0.00158  45.04949
   X341      27.04198   0.00823   0.00000   0.00758   0.00718  27.04916
   Y341      51.58952   0.01554   0.00000   0.01334   0.01317  51.60269
   Z341      36.77407  -0.01021   0.00000  -0.00661  -0.00697  36.76710
   X342      26.17271  -0.00235   0.00000   0.00303   0.00266  26.17537
   Y342      50.15333  -0.00666   0.00000  -0.00024  -0.00046  50.15287
   Z342      36.09377  -0.00631   0.00000  -0.00851  -0.00880  36.08496
   X343      27.00419  -0.00238   0.00000  -0.00287  -0.00322  27.00097
   Y343      51.32496  -0.00592   0.00000  -0.00691  -0.00703  51.31793
   Z343      38.56931   0.01101   0.00000   0.00560   0.00525  38.57456
   X344      47.81007  -0.00137   0.00000   0.00120   0.00073  47.81080
   Y344      44.93769   0.00093   0.00000   0.00080   0.00103  44.93872
   Z344      24.92549  -0.01196   0.00000  -0.00776  -0.00846  24.91703
   X345      48.54706   0.00096   0.00000  -0.00131  -0.00171  48.54536
   Y345      43.44480  -0.00614   0.00000  -0.00575  -0.00547  43.43934
   Z345      25.64358   0.00275   0.00000   0.00093   0.00026  25.64384
   X346      47.64000  -0.00098   0.00000  -0.00123  -0.00170  47.63830
   Y346      46.07152   0.00084   0.00000  -0.00403  -0.00376  46.06776
   Z346      26.32389   0.00905   0.00000   0.00858   0.00785  26.33174
   X347      26.11602  -0.00771   0.00000  -0.00658  -0.00664  26.10937
   Y347      33.92058  -0.00339   0.00000  -0.00168  -0.00219  33.91840
   Z347      25.77586   0.01146   0.00000   0.00821   0.00837  25.78424
   X348      27.32544   0.00713   0.00000   0.00635   0.00631  27.33175
   Y348      32.93793  -0.00177   0.00000   0.00114   0.00065  32.93858
   Z348      24.84990  -0.00215   0.00000   0.00257   0.00272  24.85262
   X349      26.00263   0.00308   0.00000   0.00523   0.00510  26.00773
   Y349      35.47016   0.00554   0.00000   0.00278   0.00224  35.47240
   Z349      24.84990  -0.00583   0.00000  -0.00458  -0.00446  24.84544
   X350      21.46729   0.00673   0.00000   0.00526   0.00516  21.47245
   Y350      43.12355   0.00187   0.00000   0.00016  -0.00021  43.12334
   Z350      36.77407  -0.01077   0.00000  -0.00894  -0.00892  36.76515
   X351      20.95706  -0.00106   0.00000   0.00300   0.00297  20.96003
   Y351      42.31097  -0.00140   0.00000   0.00264   0.00230  42.31327
   Z351      38.30475   0.00891   0.00000   0.00595   0.00600  38.31075
   X352      20.06889  -0.00294   0.00000  -0.00281  -0.00296  20.06593
   Y352      44.20069  -0.00047   0.00000  -0.00167  -0.00209  44.19860
   Z352      36.33943   0.00156   0.00000   0.00232   0.00235  36.34178
   X353      52.09975   0.00168   0.00000  -0.00953  -0.00959  52.09016
   Y353      34.22294   0.01612   0.00000   0.01662   0.01704  34.23999
   Z353      26.22940  -0.01948   0.00000  -0.01313  -0.01363  26.21576
   X354      51.92967  -0.00243   0.00000  -0.00263  -0.00265  51.92703
   Y354      32.59778  -0.00349   0.00000   0.00015   0.00055  32.59832
   Z354      25.43571   0.00229   0.00000   0.00485   0.00439  25.44010
   X355      51.40055  -0.00437   0.00000   0.00253   0.00252  51.40307
   Y355      33.99617  -0.00833   0.00000  -0.00970  -0.00926  33.98691
   Z355      27.87346   0.01988   0.00000   0.01488   0.01440  27.88786
   X356      48.62265  -0.01356   0.00000   0.00059   0.00033  48.62298
   Y356      38.62600   0.01910   0.00000   0.01722   0.01747  38.64347
   Z356      24.33967  -0.00238   0.00000   0.00037  -0.00017  24.33950
   X357      50.03995   0.01904   0.00000   0.01126   0.01105  50.05099
   Y357      37.62445  -0.01819   0.00000  -0.01695  -0.01664  37.60780
   Z357      24.81210   0.00695   0.00000   0.00639   0.00585  24.81795
   X358      48.56596   0.00092   0.00000   0.00111   0.00081  48.56677
   Y358      38.49372   0.00086   0.00000   0.00246   0.00265  38.49637
   Z358      22.52554  -0.00276   0.00000  -0.00170  -0.00224  22.52330
   X359      42.23538  -0.01077   0.00000  -0.00509  -0.00534  42.23004
   Y359      35.35678   0.00878   0.00000   0.00374   0.00364  35.36041
   Z359      20.03110  -0.01167   0.00000  -0.00412  -0.00441  20.02669
   X360      42.36766   0.00114   0.00000   0.00055   0.00034  42.36800
   Y360      33.71271  -0.01038   0.00000  -0.00974  -0.00986  33.70286
   Z360      19.29410   0.00016   0.00000   0.00332   0.00307  19.29718
   X361      43.18024   0.01065   0.00000   0.00720   0.00699  43.18723
   Y361      35.24339  -0.00374   0.00000  -0.00385  -0.00387  35.23952
   Z361      21.56178   0.01819   0.00000   0.01440   0.01409  21.57586
   X362      31.21828  -0.00017   0.00000   0.00046   0.00068  31.21895
   Y362      26.13491  -0.00930   0.00000  -0.00489  -0.00522  26.12969
   Z362      25.71917   0.00269   0.00000   0.00129   0.00153  25.72071
   X363      29.61201  -0.00096   0.00000   0.00005   0.00026  29.61227
   Y363      26.70183   0.00297   0.00000   0.00347   0.00310  26.70493
   Z363      26.36168   0.00032   0.00000   0.00006   0.00033  26.36201
   X364      31.97417   0.00194   0.00000   0.00048   0.00062  31.97479
   Y364      27.62780   0.01102   0.00000   0.01138   0.01106  27.63886
   Z364      25.00108   0.00262   0.00000   0.00872   0.00891  25.00998
   X365      26.30499  -0.00439   0.00000  -0.00368  -0.00297  26.30202
   Y365      28.68604  -0.01278   0.00000  -0.00804  -0.00789  28.67815
   Z365      48.79273   0.00935   0.00000   0.00764   0.00795  48.80067
   X366      27.66559   0.00718   0.00000   0.00451   0.00520  27.67079
   Y366      29.72539   0.00835   0.00000   0.00742   0.00763  29.73302
   Z366      49.37854  -0.00088   0.00000  -0.00387  -0.00363  49.37491
   X367      25.73807   0.00096   0.00000   0.00429   0.00493  25.74300
   Y367      29.49862   0.00337   0.00000  -0.00176  -0.00168  29.49695
   Z367      47.28095  -0.01026   0.00000  -0.00800  -0.00771  47.27324
   X368      44.65423   0.01592   0.00000   0.01686   0.01757  44.67180
   Y368      31.86078   0.00550   0.00000  -0.00536  -0.00444  31.85634
   Z368      53.25248  -0.00144   0.00000   0.00116   0.00091  53.25339
   X369      44.50305  -0.00970   0.00000  -0.01629  -0.01556  44.48749
   Y369      30.42459  -0.01105   0.00000  -0.01158  -0.01070  30.41389
   Z369      52.15644  -0.00504   0.00000  -0.00399  -0.00419  52.15225
   X370      43.46370  -0.01108   0.00000  -0.01198  -0.01122  43.45248
   Y370      31.55843  -0.00042   0.00000   0.00304   0.00395  31.56237
   Z370      54.57529   0.00168   0.00000  -0.00560  -0.00582  54.56947
   X371      54.25404  -0.00154   0.00000   0.00061   0.00098  54.25502
   Y371      32.84344   0.00904   0.00000   0.00182   0.00274  32.84618
   Z371      41.32831   0.00434   0.00000   0.00356   0.00304  41.33135
   X372      55.89810   0.00869   0.00000   0.00774   0.00810  55.90619
   Y372      32.86234  -0.00101   0.00000  -0.00238  -0.00142  32.86092
   Z372      40.57242  -0.00351   0.00000  -0.00233  -0.00289  40.56953
   X373      53.68712  -0.00586   0.00000  -0.00699  -0.00657  53.68055
   Y373      31.14269  -0.01206   0.00000  -0.00967  -0.00878  31.13391
   Z373      41.13934  -0.00050   0.00000   0.00095   0.00049  41.13983
   X374      40.62911   0.00450   0.00000   0.00312   0.00344  40.63255
   Y374      44.46526  -0.00921   0.00000  -0.00492  -0.00409  44.46117
   Z374      55.48236   0.02140   0.00000   0.01559   0.01508  55.49744
   X375      40.30786   0.00084   0.00000   0.00357   0.00391  40.31177
   Y375      43.10465  -0.00117   0.00000   0.00159   0.00238  43.10703
   Z375      54.32963  -0.00811   0.00000  -0.00610  -0.00656  54.32307
   X376      40.49683  -0.00215   0.00000  -0.00157  -0.00133  40.49551
   Y376      45.95814   0.00987   0.00000   0.00008   0.00088  45.95902
   Z376      54.49970  -0.01798   0.00000  -0.01696  -0.01750  54.48221
   X377      47.03528  -0.00914   0.00000  -0.00591  -0.00574  47.02954
   Y377      45.59909   0.00308   0.00000  -0.00443  -0.00351  45.59559
   Z377      50.75804  -0.00574   0.00000  -0.00460  -0.00530  50.75274
   X378      48.45258   0.01333   0.00000   0.01556   0.01572  48.46830
   Y378      44.91879  -0.00168   0.00000   0.00113   0.00208  44.92087
   Z378      49.86987  -0.00166   0.00000   0.00255   0.00183  49.87171
   X379      47.26205  -0.00029   0.00000  -0.00278  -0.00256  47.25949
   Y379      45.03217  -0.00207   0.00000  -0.00059   0.00039  45.03256
   Z379      52.45880   0.00916   0.00000   0.00745   0.00677  52.46557
   X380      28.00574   0.00623   0.00000   0.00270   0.00317  28.00892
   Y380      22.77120  -0.01410   0.00000  -0.00852  -0.00881  22.76239
   Z380      31.21828  -0.01799   0.00000  -0.01469  -0.01426  31.20401
   X381      26.85301  -0.00312   0.00000  -0.00162  -0.00109  26.85192
   Y381      21.59957  -0.00238   0.00000  -0.00216  -0.00247  21.59710
   Z381      31.97417   0.00383   0.00000   0.00255   0.00303  31.97720
   X382      27.87346  -0.00409   0.00000  -0.00432  -0.00388  27.86958
   Y382      24.26408   0.01271   0.00000   0.00440   0.00413  24.26821
   Z382      32.21983   0.01248   0.00000   0.00773   0.00811  32.22794
   X383      18.40593  -0.01513   0.00000  -0.00677  -0.00661  18.39932
   Y383      37.35989  -0.00281   0.00000  -0.00087  -0.00127  37.35862
   Z383      39.41969  -0.00989   0.00000  -0.01490  -0.01464  39.40505
   X384      17.95240   0.00041   0.00000  -0.00015  -0.00004  17.95236
   Y384      39.09843   0.00162   0.00000   0.00064   0.00023  39.09867
   Z384      39.68425   0.00183   0.00000   0.00269   0.00291  39.68716
   X385      20.18228   0.01589   0.00000   0.00867   0.00884  20.19112
   Y385      37.32209   0.00044   0.00000  -0.00002  -0.00035  37.32174
   Z385      39.70315   0.01010   0.00000   0.01540   0.01561  39.71876
         Item               Value     Threshold  Converged?
 Maximum Force            0.035400     0.000450     NO 
 RMS     Force            0.010486     0.000300     NO 
 Maximum Displacement     0.028392     0.001800     NO 
 RMS     Displacement     0.008833     0.001200     NO 
 Predicted change in Energy=-7.154855D-02
 GradGradGradGradGradGradGradGradGradGradGradGradGradGradGradGradGradGrad

 Leave Link  103 at Sat May  5 12:19:44 2018, MaxMem= 14763950080 cpu:      2617.4
 (Enter /cm/shared/gaussian/g09.e01/intel64-sandybridge/g09/l9999.exe)
 1\1\GINC-POPLE01\Force\RPBE1PBE\CC-pVDZ\Br1H256O128(1-)\M.PELUSO\05-Ma
 y-2018\0\\#p PBE1PBE/cc-pvDZ force Counterpoise=2 noSymm\\forces on ch
 loride comput - NWATER: 128\\-1,1\Br,20.,20.,20.\O,18.13,17.74,18.93\H
 ,18.48,18.44,19.49\H,17.18,17.81,19.04\O,21.29,22.58,21.5\H,21.19,21.7
 2,21.1\H,21.87,23.06,20.9\O,18.73,21.24,17.12\H,19.11,20.74,17.84\H,18
 .32,22.,17.54\O,22.9,20.42,18.43\H,21.96,20.36,18.56\H,23.28,20.12,19.
 25\O,22.26,18.38,21.76\H,21.85,18.66,20.93\H,21.68,18.73,22.44\O,18.17
 ,22.83,19.45\H,17.73,23.38,20.1\H,18.65,22.18,19.96\O,18.43,18.38,22.9
 6\H,17.63,17.87,22.93\H,18.57,18.67,22.06\O,20.51,19.66,23.94\H,19.7,1
 9.23,23.67\H,20.4,19.84,24.87\O,20.11,24.21,17.9\H,19.75,24.,17.03\H,1
 9.62,23.66,18.5\O,23.07,23.46,19.4\H,23.62,24.08,19.89\H,23.37,22.6,19
 .68\O,22.38,22.6,16.61\H,22.28,21.67,16.8\H,22.57,23.,17.45\O,19.28,19
 .3,15.15\H,19.22,20.02,15.78\H,19.03,19.7,14.31\O,16.74,20.69,23.7\H,1
 7.6,21.01,23.42\H,16.93,20.03,24.37\O,18.03,16.84,16.48\H,18.19,17.11,
 17.38\H,18.44,17.53,15.95\O,20.67,22.71,24.4\H,20.91,22.22,23.61\H,20.
 53,22.03,25.06\O,24.64,19.62,22.23\H,24.63,19.86,23.16\H,23.76,19.29,2
 2.06\O,20.24,16.52,23.86\H,19.8,17.15,23.29\H,19.79,15.69,23.69\O,22.9
 8,17.16,18.08\H,22.2,16.77,17.7\H,23.08,18.,17.63\O,19.9,24.62,22.64\H
 ,19.87,24.,23.37\H,20.17,24.09,21.89\O,21.36,14.8,21.73\H,21.66,15.69,
 21.56\H,20.47,14.91,22.07\O,14.91,19.27,21.62\H,15.5,19.5,22.34\H,14.0
 7,19.1,22.04\O,20.89,15.54,17.08\H,20.2,15.22,17.66\H,20.56,15.36,16.2
 \O,15.07,18.19,19.08\H,14.86,18.48,19.97\H,14.54,18.76,18.52\O,22.85,1
 6.98,24.91\H,23.52,16.49,24.43\H,22.2,17.21,24.25\O,19.01,26.21,19.49\
 H,18.23,26.67,19.17\H,19.11,25.47,18.9\O,16.46,24.31,21.24\H,15.93,24.
 25,22.03\H,15.83,24.45,20.54\O,21.45,17.65,14.38\H,22.26,18.15,14.49\H
 ,20.76,18.26,14.61\O,19.17,22.21,14.\H,19.58,22.54,14.8\H,19.41,22.85,
 13.33\O,22.16,26.12,18.51\H,21.28,25.78,18.66\H,22.74,25.4,18.77\O,13.
 96,22.21,22.2\H,13.89,21.26,22.12\H,14.66,22.45,21.6\O,26.37,17.48,20.
 13\H,25.66,17.65,20.74\H,27.15,17.84,20.56\O,25.74,18.63,16.59\H,25.15
 ,19.28,16.21\H,25.5,18.61,17.52\O,25.51,15.73,18.28\H,24.68,16.2,18.4\
 H,26.16,16.26,18.74\O,26.39,21.89,20.47\H,27.22,21.47,20.69\H,25.86,21
 .81,21.27\O,23.01,25.16,23.32\H,22.12,25.14,22.95\H,23.06,26.02,23.74\
 O,14.48,22.92,19.11\H,13.85,22.21,19.06\H,14.77,23.05,18.21\O,21.71,23
 .72,14.14\H,21.75,23.59,15.08\H,21.16,24.49,14.02\O,15.82,16.95,23.76\
 H,16.2,16.17,23.35\H,14.89,16.92,23.51\O,17.85,14.15,16.45\H,17.13,14.
 11,15.81\H,18.13,15.06,16.43\O,15.49,16.14,16.08\H,15.07,17.,16.09\H,1
 6.42,16.33,16.21\O,22.86,14.89,15.43\H,22.29,15.26,16.1\H,22.48,14.03,
 15.24\O,16.15,22.99,14.79\H,15.99,23.92,14.65\H,17.1,22.92,14.87\O,15.
 69,15.13,21.4\H,16.07,14.43,20.86\H,14.94,15.44,20.89\O,20.13,20.72,26
 .63\H,21.,20.84,27.\H,19.62,21.46,26.96\O,18.99,14.06,22.91\H,19.17,13
 .21,22.5\H,18.09,13.98,23.23\O,25.35,23.93,16.42\H,25.06,24.55,17.08\H
 ,24.63,23.3,16.34\O,14.76,22.62,25.14\H,15.38,22.13,24.6\H,15.31,23.15
 ,25.72\O,16.9,17.6,26.41\H,16.58,17.59,25.51\H,17.57,16.91,26.43\O,17.
 64,16.56,13.35\H,17.94,16.7,14.25\H,18.35,16.9,12.81\O,13.58,19.84,17.
 32\H,13.6,20.69,16.89\H,12.91,19.34,16.84\O,21.56,24.67,26.04\H,20.71,
 24.95,25.69\H,21.76,23.86,25.58\O,24.8,14.54,21.43\H,25.56,14.37,20.88
 \H,24.05,14.33,20.88\O,25.19,23.41,24.05\H,24.73,24.07,23.52\H,24.75,2
 3.44,24.89\O,18.74,15.61,26.63\H,19.2,16.35,26.24\H,19.2,14.84,26.29\O
 ,16.77,20.43,26.61\H,15.84,20.48,26.8\H,17.02,19.53,26.82\O,20.11,27.8
 1,22.81\H,19.84,26.96,22.46\H,20.95,27.99,22.38\O,24.74,15.16,23.95\H,
 25.66,15.15,24.19\H,24.73,15.14,23.\O,22.,21.71,12.33\H,22.78,22.09,11
 .92\H,21.88,22.23,13.13\O,13.68,21.91,15.49\H,14.6,22.07,15.28\H,13.34
 ,21.45,14.72\O,19.09,26.28,25.33\H,18.85,26.11,24.42\H,19.83,26.89,25.
 28\O,14.83,14.34,17.94\H,15.02,14.92,17.21\H,14.31,14.87,18.54\O,22.87
 ,12.29,20.73\H,22.38,12.86,21.33\H,22.25,12.11,20.02\O,20.,19.46,12.01
 \H,20.55,18.77,11.64\H,20.61,20.09,12.38\O,22.02,14.94,26.34\H,22.4,15
 .63,25.8\H,22.1,14.14,25.81\O,19.7,25.39,14.58\H,19.98,26.21,15.\H,19.
 01,25.66,13.98\O,18.26,22.43,27.62\H,17.79,21.77,27.12\H,17.68,23.2,27
 .6\O,17.85,21.11,11.81\H,18.,21.35,12.72\H,18.5,20.43,11.63\O,16.89,12
 .98,19.76\H,17.52,12.43,19.3\H,16.22,13.17,19.11\O,22.72,21.45,27.29\H
 ,23.51,21.97,27.42\H,23.05,20.57,27.07\O,20.29,14.88,14.05\H,20.14,14.
 28,13.32\H,20.75,15.62,13.66\O,17.12,27.13,22.81\H,17.26,27.01,21.87\H
 ,17.16,28.07,22.94\O,27.83,19.75,18.48\H,27.52,19.13,17.81\H,27.55,20.
 61,18.15\O,17.71,26.85,16.98\H,18.29,26.89,16.21\H,16.88,26.53,16.64\O
 ,27.35,21.93,16.98\H,28.01,22.1,16.31\H,26.75,22.67,16.92\O,18.77,11.8
 9,18.03\H,18.44,12.66,17.57\H,19.69,12.09,18.21\O,23.92,18.55,13.31\H,
 24.36,19.39,13.24\H,24.6,17.95,13.62\O,22.73,27.9,21.7\H,23.27,27.12,2
 1.56\H,22.61,28.27,20.82\O,16.42,13.94,23.98\H,15.98,13.33,24.58\H,15.
 86,13.96,23.2\O,24.25,19.21,27.02\H,24.88,19.19,26.3\H,23.97,18.3,27.1
 2\O,27.46,21.81,23.48\H,26.7,22.31,23.8\H,28.06,22.48,23.14\O,28.41,20
 .08,21.23\H,28.58,19.23,21.63\H,28.04,19.88,20.37\O,20.09,18.35,28.81\
 H,20.3,19.18,29.25\H,19.81,18.62,27.93\O,15.5,25.5,15.68\H,14.91,25.1,
 16.32\H,15.02,26.26,15.35\O,21.46,11.76,18.57\H,21.7,10.9,18.24\H,21.6
 8,12.36,17.86\O,15.96,25.71,24.87\H,16.48,26.03,24.13\H,16.13,26.34,25
 .57\O,18.72,11.71,21.73\H,18.08,12.18,21.2\H,18.2,11.22,22.36\O,28.18,
 23.94,19.93\H,28.41,24.18,19.03\H,27.4,23.4,19.84\O,25.21,26.25,20.4\H
 ,25.64,26.81,21.05\H,25.78,26.31,19.63\O,20.28,28.84,18.67\H,19.91,28.
 15,19.22\H,19.85,29.64,18.96\O,13.25,25.22,17.88\H,12.34,25.49,17.78\H
 ,13.23,24.58,18.59\O,22.98,28.71,18.84\H,22.12,29.09,18.67\H,22.85,27.
 77,18.76\O,26.62,19.81,25.39\H,26.9,20.48,24.77\H,26.85,20.16,26.25\O,
 25.22,15.69,13.77\H,24.84,15.38,12.95\H,24.51,15.64,14.41\O,14.44,26.3
 2,22.01\H,14.1,25.79,22.73\H,15.31,26.6,22.3\O,13.13,16.22,23.12\H,12.
 4,16.79,23.35\H,12.93,15.92,22.23\O,12.53,24.47,23.23\H,13.07,23.69,23
 .15\H,12.43,24.6,24.18\O,25.32,13.5,16.69\H,25.56,14.24,17.24\H,24.38,
 13.6,16.55\O,12.56,21.,25.11\H,11.89,21.64,25.36\H,13.37,21.51,25.05\O
 ,27.29,15.85,16.01\H,26.63,15.83,16.71\H,26.79,15.81,15.2\O,23.4,12.74
 ,24.5\H,24.1,12.3,24.98\H,23.73,13.63,24.36\O,11.91,19.48,22.82\H,11.4
 5,18.77,23.28\H,12.18,20.08,23.52\O,13.92,18.84,26.12\H,13.45,18.83,26
 .95\H,13.56,19.6,25.65\O,16.01,24.46,27.1\H,15.61,25.28,27.38\H,16.16,
 24.57,26.16\O,17.04,28.28,19.5\H,16.57,29.1,19.64\H,16.49,27.8,18.88\O
 ,21.38,12.52,15.87\H,21.8,11.7,15.61\H,20.92,12.81,15.08\O,17.5,13.13,
 26.25\H,17.14,13.7,26.93\H,17.53,13.69,25.47\O,15.36,22.45,11.96\H,15.
 99,22.52,12.68\H,15.56,23.19,11.39\O,23.01,27.36,15.39\H,23.61,26.68,1
 5.71\H,23.44,28.18,15.63\O,11.79,17.11,19.\H,11.45,17.96,18.73\H,12.07
 ,16.69,18.18\O,20.29,27.9,16.12\H,21.23,27.75,16.1\H,20.11,28.27,16.98
 \O,21.78,15.54,11.74\H,22.33,15.74,12.5\H,22.04,14.66,11.48\O,12.5,14.
 99,20.83\H,12.11,15.69,20.3\H,12.26,14.18,20.37\O,27.46,16.92,24.57\H,
 27.28,17.54,25.28\H,27.74,17.47,23.84\O,14.31,27.3,19.46\H,13.85,26.54
 ,19.1\H,14.29,27.16,20.41\O,25.3,23.78,13.19\H,25.69,22.99,13.57\H,25.
 21,24.38,13.93\O,13.82,17.95,13.64\H,14.46,17.43,13.15\H,13.76,18.77,1
 3.15\O,11.36,22.82,19.46\H,11.09,22.39,20.27\H,10.62,23.39,19.23\O,27.
 57,18.11,13.88\H,27.48,17.25,13.46\H,27.2,17.99,14.75\O,25.73,20.44,12
 .88\H,26.48,19.91,13.13\H,25.7,20.37,11.92\O,22.35,18.71,10.6\H,22.42,
 17.84,10.21\H,22.85,18.65,11.41\O,16.52,13.83,13.61\H,15.67,14.13,13.9
 5\H,16.92,14.62,13.23\O,13.92,15.18,25.82\H,14.64,15.73,26.13\H,13.62,
 15.61,25.02\O,23.63,16.86,28.18\H,23.55,16.1,27.6\H,23.,16.7,28.88\O,2
 8.71,17.38,21.87\H,29.58,17.39,21.47\H,28.41,16.48,21.77\O,21.5,23.53,
 29.36\H,21.33,22.81,28.75\H,21.43,24.32,28.84\O,24.89,24.13,26.86\H,25
 .64,23.77,26.39\H,25.01,23.83,27.76\O,14.82,12.05,16.52\H,14.21,11.43,
 16.92\H,14.75,12.84,17.05\O,9.74,19.77,20.86\H,9.5,20.69,21.\H,10.68,1
 9.75,21.01\\Version=ES64L-G09RevE.01\HF=-9773.4025516\RMSD=1.541e-09\R
 MSF=1.049e-02\Dipole=-8.5111889,8.2362507,-6.9065332\Quadrupole=-327.6
 788031,793.3480475,-465.6692443,-1455.8281033,-2035.3112946,-1341.3148
 827\PG=C01 [X(Br1H256O128)]\\@


 SOME PHYSICISTS WOULD PREFER TO COME BACK TO THE IDEA OF AN OBJECTIVE
 REAL WORLD WHOSE SMALLEST PARTS EXIST OBJECTIVELY IN THE SAME SENSE AS
 STONES OR TREES EXIST INDEPENDENTLY OF WHETHER WE OBSERVE THEM.
 THIS, HOWEVER, IS IMPOSSIBLE.  -- WERNER HEISENBERG
 Job cpu time:       5 days  5 hours 45 minutes 40.7 seconds.
 File lengths (MBytes):  RWF=   7285 Int=      0 D2E=      0 Chk=   2411 Scr=      1
 Normal termination of Gaussian 09 at Sat May  5 12:20:12 2018.
