 Entering Gaussian System, Link 0=/cm/shared/gaussian/g09.e01/intel64-sandybridge/g09/g09
 Initial command:
 /cm/shared/gaussian/g09.e01/intel64-sandybridge/g09/l1.exe "/local/scratch/m.peluso/128_wat/370/Gau-57599.inp" -scrdir="/local/scratch/m.peluso/128_wat/370/"
 Entering Link 1 = /cm/shared/gaussian/g09.e01/intel64-sandybridge/g09/l1.exe PID=     57600.
  
 Copyright (c) 1988,1990,1992,1993,1995,1998,2003,2009,2015,
            Gaussian, Inc.  All Rights Reserved.
  
 This is part of the Gaussian(R) 09 program.  It is based on
 the Gaussian(R) 03 system (copyright 2003, Gaussian, Inc.),
 the Gaussian(R) 98 system (copyright 1998, Gaussian, Inc.),
 the Gaussian(R) 94 system (copyright 1995, Gaussian, Inc.),
 the Gaussian 92(TM) system (copyright 1992, Gaussian, Inc.),
 the Gaussian 90(TM) system (copyright 1990, Gaussian, Inc.),
 the Gaussian 88(TM) system (copyright 1988, Gaussian, Inc.),
 the Gaussian 86(TM) system (copyright 1986, Carnegie Mellon
 University), and the Gaussian 82(TM) system (copyright 1983,
 Carnegie Mellon University). Gaussian is a federally registered
 trademark of Gaussian, Inc.
  
 This software contains proprietary and confidential information,
 including trade secrets, belonging to Gaussian, Inc.
  
 This software is provided under written license and may be
 used, copied, transmitted, or stored only in accord with that
 written license.
  
 The following legend is applicable only to US Government
 contracts under FAR:
  
                    RESTRICTED RIGHTS LEGEND
  
 Use, reproduction and disclosure by the US Government is
 subject to restrictions as set forth in subparagraphs (a)
 and (c) of the Commercial Computer Software - Restricted
 Rights clause in FAR 52.227-19.
  
 Gaussian, Inc.
 340 Quinnipiac St., Bldg. 40, Wallingford CT 06492
  
  
 ---------------------------------------------------------------
 Warning -- This program may not be used in any manner that
 competes with the business of Gaussian, Inc. or will provide
 assistance to any competitor of Gaussian, Inc.  The licensee
 of this program is prohibited from giving any competitor of
 Gaussian, Inc. access to this program.  By using this program,
 the user acknowledges that Gaussian, Inc. is engaged in the
 business of creating and licensing software in the field of
 computational chemistry and represents and warrants to the
 licensee that it is not a competitor of Gaussian, Inc. and that
 it will not use this program in any manner prohibited above.
 ---------------------------------------------------------------
  

 Cite this work as:
 Gaussian 09, Revision E.01,
 M. J. Frisch, G. W. Trucks, H. B. Schlegel, G. E. Scuseria, 
 M. A. Robb, J. R. Cheeseman, G. Scalmani, V. Barone, B. Mennucci, 
 G. A. Petersson, H. Nakatsuji, M. Caricato, X. Li, H. P. Hratchian, 
 A. F. Izmaylov, J. Bloino, G. Zheng, J. L. Sonnenberg, M. Hada, 
 M. Ehara, K. Toyota, R. Fukuda, J. Hasegawa, M. Ishida, T. Nakajima, 
 Y. Honda, O. Kitao, H. Nakai, T. Vreven, J. A. Montgomery, Jr., 
 J. E. Peralta, F. Ogliaro, M. Bearpark, J. J. Heyd, E. Brothers, 
 K. N. Kudin, V. N. Staroverov, T. Keith, R. Kobayashi, J. Normand, 
 K. Raghavachari, A. Rendell, J. C. Burant, S. S. Iyengar, J. Tomasi, 
 M. Cossi, N. Rega, J. M. Millam, M. Klene, J. E. Knox, J. B. Cross, 
 V. Bakken, C. Adamo, J. Jaramillo, R. Gomperts, R. E. Stratmann, 
 O. Yazyev, A. J. Austin, R. Cammi, C. Pomelli, J. W. Ochterski, 
 R. L. Martin, K. Morokuma, V. G. Zakrzewski, G. A. Voth, 
 P. Salvador, J. J. Dannenberg, S. Dapprich, A. D. Daniels, 
 O. Farkas, J. B. Foresman, J. V. Ortiz, J. Cioslowski, 
 and D. J. Fox, Gaussian, Inc., Wallingford CT, 2013.
 
 ******************************************
 Gaussian 09:  ES64L-G09RevE.01 30-Nov-2015
                 6-May-2018 
 ******************************************
 %Mem=110GB
 %NProcShared=64
 Will use up to   64 processors via shared memory.
 %chk=snap28.chk
 ----------------------------------------------
 #p PBE1PBE/cc-pvDZ force Counterpoise=2 noSymm
 ----------------------------------------------
 1/10=7,30=1,38=1,62=2/1,3;
 2/12=2,15=1,17=6,18=5,40=1/2;
 1/10=7,30=1,38=1,53=2,62=2,63=101/22;
 3/5=16,11=2,16=1,25=1,30=1,71=1,74=-13/1,2,3;
 4//1;
 5/5=2,38=5/2;
 6/7=2,8=2,9=2,10=2,28=1/1;
 7/7=1,29=1,30=1,33=-1/1,2,3,16;
 1/10=7,30=1,53=2,62=2,63=101/22;
 3/5=7,6=11,11=2,16=1,25=1,30=1,71=1,74=-13,82=7/1,2,3;
 4//1;
 5/5=2,38=5/2;
 6/7=2,8=2,9=2,10=2,28=1/1;
 7/7=1,29=1,30=1,33=-1/1,2,3,16;
 1/10=7,30=1,53=2,62=2,63=101/22(-5);
 7/9=1,29=1,44=-1/16;
 1/10=7,30=1,62=2/3;
 99//99;
 Leave Link    1 at Sun May  6 10:56:43 2018, MaxMem= 14763950080 cpu:        41.5
 (Enter /cm/shared/gaussian/g09.e01/intel64-sandybridge/g09/l101.exe)
 ---------------------------------------
 forces on chloride comput - NWATER: 128
 ---------------------------------------
 Symbolic Z-matrix:
 Charge = -1 Multiplicity = 1 in supermolecule
 Charge = -1 Multiplicity = 1 in fragment      1.
 Charge =  0 Multiplicity = 1 in fragment      2.
 Br(Fragment=1)        20.       20.       20. 
 O(Fragment=2)         18.71     22.39     21.65 
 H(Fragment=2)         17.85     21.97     21.66 
 H(Fragment=2)         19.26     21.8      21.14 
 O(Fragment=2)         17.05     21.03     19.14 
 H(Fragment=2)         16.81     20.92     18.23 
 H(Fragment=2)         17.95     20.7      19.2 
 O(Fragment=2)         20.07     17.96     17.56 
 H(Fragment=2)         19.94     17.06     17.86 
 H(Fragment=2)         19.71     18.5      18.26 
 O(Fragment=2)         19.57     17.9      22.53 
 H(Fragment=2)         18.88     18.53     22.76 
 H(Fragment=2)         20.06     18.32     21.83 
 O(Fragment=2)         21.5      20.71     16.84 
 H(Fragment=2)         20.8      20.67     16.19 
 H(Fragment=2)         21.05     20.59     17.68 
 O(Fragment=2)         16.79     19.03     20.79 
 H(Fragment=2)         16.48     19.7      20.18 
 H(Fragment=2)         17.61     18.72     20.41 
 O(Fragment=2)         22.48     22.4      19.6 
 H(Fragment=2)         23.15     22.18     20.24 
 H(Fragment=2)         22.15     21.56     19.29 
 O(Fragment=2)         22.45     17.94     18.86 
 H(Fragment=2)         21.78     17.88     18.18 
 H(Fragment=2)         21.96     17.94     19.68 
 O(Fragment=2)         24.34     19.94     19.74 
 H(Fragment=2)         23.62     19.44     19.36 
 H(Fragment=2)         24.88     20.19     18.99 
 O(Fragment=2)         22.54     18.24     23.18 
 H(Fragment=2)         21.74     17.87     22.82 
 H(Fragment=2)         22.95     17.52     23.66 
 O(Fragment=2)         19.02     24.68     19.5 
 H(Fragment=2)         19.22     23.99     20.13 
 H(Fragment=2)         18.31     25.18     19.9 
 O(Fragment=2)         20.18     22.91     23.95 
 H(Fragment=2)         19.77     22.72     23.1 
 H(Fragment=2)         19.47     22.81     24.59 
 O(Fragment=2)         15.92     22.33     21.23 
 H(Fragment=2)         16.26     22.11     20.36 
 H(Fragment=2)         15.48     23.17     21.11 
 O(Fragment=2)         17.66     21.89     16.48 
 H(Fragment=2)         18.03     22.71     16.84 
 H(Fragment=2)         18.36     21.54     15.94 
 O(Fragment=2)         19.69     15.42     18.62 
 H(Fragment=2)         19.13     15.48     19.39 
 H(Fragment=2)         20.11     14.56     18.7 
 O(Fragment=2)         21.92     24.94     19.2 
 H(Fragment=2)         22.22     24.04     19.36 
 H(Fragment=2)         21.01     24.95     19.5 
 O(Fragment=2)         19.87     19.84     24.96 
 H(Fragment=2)         19.96     18.97     24.58 
 H(Fragment=2)         20.62     20.33     24.63 
 O(Fragment=2)         21.46     17.65     15.13 
 H(Fragment=2)         20.97     17.89     15.92 
 H(Fragment=2)         21.9      18.45     14.86 
 O(Fragment=2)         16.15     18.29     17.27 
 H(Fragment=2)         16.91     17.75     17.06 
 H(Fragment=2)         16.26     19.08     16.73 
 O(Fragment=2)         20.24     15.31     23.13 
 H(Fragment=2)         19.91     16.21     23.06 
 H(Fragment=2)         20.41     15.18     24.06 
 O(Fragment=2)         24.19     20.51     16.32 
 H(Fragment=2)         23.32     20.86     16.48 
 H(Fragment=2)         24.75     20.96     16.95 
 O(Fragment=2)         22.66     20.59     24.72 
 H(Fragment=2)         22.99     21.24     24.11 
 H(Fragment=2)         22.68     19.77     24.23 
 O(Fragment=2)         19.67     20.8      14.83 
 H(Fragment=2)         20.4      21.01     14.25 
 H(Fragment=2)         19.07     20.29     14.29 
 O(Fragment=2)         14.56     20.35     22.62 
 H(Fragment=2)         15.26     20.76     22.11 
 H(Fragment=2)         14.4      20.96     23.34 
 O(Fragment=2)         22.48     15.5      21.48 
 H(Fragment=2)         22.88     14.71     21.12 
 H(Fragment=2)         21.56     15.25     21.61 
 O(Fragment=2)         25.11     16.95     18.35 
 H(Fragment=2)         24.22     17.26     18.49 
 H(Fragment=2)         25.55     17.1      19.18 
 O(Fragment=2)         24.       22.16     22.74 
 H(Fragment=2)         24.36     22.79     22.12 
 H(Fragment=2)         24.4      22.39     23.58 
 O(Fragment=2)         25.95     18.44     21.4 
 H(Fragment=2)         25.82     17.72     22.02 
 H(Fragment=2)         25.07     18.75     21.2 
 O(Fragment=2)         14.7      17.43     19.49 
 H(Fragment=2)         15.08     17.89     20.24 
 H(Fragment=2)         15.21     17.74     18.74 
 O(Fragment=2)         14.89     17.69     22.72 
 H(Fragment=2)         15.46     17.95     22. 
 H(Fragment=2)         14.44     18.5      22.96 
 O(Fragment=2)         16.52     23.31     23.91 
 H(Fragment=2)         17.25     23.32     23.29 
 H(Fragment=2)         15.92     22.65     23.57 
 O(Fragment=2)         21.73     25.13     16.62 
 H(Fragment=2)         22.07     24.36     16.17 
 H(Fragment=2)         21.71     24.88     17.55 
 O(Fragment=2)         18.73     14.1      20.86 
 H(Fragment=2)         18.08     14.63     21.32 
 H(Fragment=2)         19.33     13.81     21.55 
 O(Fragment=2)         25.76     22.81     20.77 
 H(Fragment=2)         26.39     22.18     21.13 
 H(Fragment=2)         25.46     22.42     19.95 
 O(Fragment=2)         16.09     24.18     18.15 
 H(Fragment=2)         16.88     24.71     18.02 
 H(Fragment=2)         15.7      24.12     17.28 
 O(Fragment=2)         18.65     21.8      26.48 
 H(Fragment=2)         18.63     21.27     27.28 
 H(Fragment=2)         19.12     21.26     25.84 
 O(Fragment=2)         17.64     16.21     15.93 
 H(Fragment=2)         18.52     15.99     15.61 
 H(Fragment=2)         17.36     15.45     16.43 
 O(Fragment=2)         16.83     18.33     14.51 
 H(Fragment=2)         16.81     18.05     13.6 
 H(Fragment=2)         17.13     17.56     14.99 
 O(Fragment=2)         17.23     25.7      21.41 
 H(Fragment=2)         16.81     26.34     20.84 
 H(Fragment=2)         16.55     25.05     21.59 
 O(Fragment=2)         24.79     16.13     22.8 
 H(Fragment=2)         25.02     15.51     23.5 
 H(Fragment=2)         24.05     15.72     22.35 
 O(Fragment=2)         25.83     21.72     18.14 
 H(Fragment=2)         25.73     22.65     17.98 
 H(Fragment=2)         26.62     21.47     17.65 
 O(Fragment=2)         20.57     16.61     25.59 
 H(Fragment=2)         20.98     17.11     26.29 
 H(Fragment=2)         19.67     16.91     25.56 
 O(Fragment=2)         25.62     19.08     24.39 
 H(Fragment=2)         25.59     18.8      25.31 
 H(Fragment=2)         24.87     18.64     23.99 
 O(Fragment=2)         14.55     20.77     16.64 
 H(Fragment=2)         14.17     20.8      15.76 
 H(Fragment=2)         13.79     20.76     17.22 
 O(Fragment=2)         26.59     21.25     23.17 
 H(Fragment=2)         26.43     20.59     23.84 
 H(Fragment=2)         25.76     21.31     22.7 
 O(Fragment=2)         16.11     22.81     14.32 
 H(Fragment=2)         16.62     22.3      14.95 
 H(Fragment=2)         16.57     22.69     13.49 
 O(Fragment=2)         21.65     26.84     21.59 
 H(Fragment=2)         21.05     26.19     21.96 
 H(Fragment=2)         21.7      27.53     22.26 
 O(Fragment=2)         12.79     20.99     20.47 
 H(Fragment=2)         13.07     21.9      20.39 
 H(Fragment=2)         13.5      20.55     20.93 
 O(Fragment=2)         19.83     18.2      12.9 
 H(Fragment=2)         20.51     18.86     12.99 
 H(Fragment=2)         19.75     17.81     13.77 
 O(Fragment=2)         20.6      25.85     24.74 
 H(Fragment=2)         20.79     25.02     24.29 
 H(Fragment=2)         19.84     26.21     24.28 
 O(Fragment=2)         22.99     18.97     26.78 
 H(Fragment=2)         22.29     19.18     27.4 
 H(Fragment=2)         22.86     19.59     26.06 
 O(Fragment=2)         19.17     23.9      13.73 
 H(Fragment=2)         19.9      23.68     14.32 
 H(Fragment=2)         19.23     24.85     13.63 
 O(Fragment=2)         24.84     24.39     18.08 
 H(Fragment=2)         25.71     24.61     18.43 
 H(Fragment=2)         24.29     25.13     18.34 
 O(Fragment=2)         22.01     20.12     13.33 
 H(Fragment=2)         22.87     20.03     13.75 
 H(Fragment=2)         22.09     20.91     12.8 
 O(Fragment=2)         14.28     23.47     16.28 
 H(Fragment=2)         14.48     22.64     16.71 
 H(Fragment=2)         14.59     23.35     15.38 
 O(Fragment=2)         24.67     19.09     13.97 
 H(Fragment=2)         25.24     18.33     13.86 
 H(Fragment=2)         24.68     19.27     14.91 
 O(Fragment=2)         23.84     15.83     14.55 
 H(Fragment=2)         23.47     16.06     15.4 
 H(Fragment=2)         23.5      14.96     14.36 
 O(Fragment=2)         22.36     23.37     14.33 
 H(Fragment=2)         22.98     24.07     14.12 
 H(Fragment=2)         22.8      22.56     14.09 
 O(Fragment=2)         13.83     17.18     16.06 
 H(Fragment=2)         13.5      17.04     16.95 
 H(Fragment=2)         14.54     17.82     16.17 
 O(Fragment=2)         19.77     12.62     17.49 
 H(Fragment=2)         19.58     13.53     17.29 
 H(Fragment=2)         19.       12.13     17.19 
 O(Fragment=2)         16.49     14.04     17.5 
 H(Fragment=2)         16.14     13.14     17.53 
 H(Fragment=2)         16.01     14.5      18.19 
 O(Fragment=2)         19.93     27.52     18.76 
 H(Fragment=2)         20.28     27.04     19.51 
 H(Fragment=2)         19.88     26.87     18.06 
 O(Fragment=2)         19.04     26.89     22.81 
 H(Fragment=2)         18.62     27.7      23.12 
 H(Fragment=2)         18.45     26.56     22.13 
 O(Fragment=2)         24.43     25.78     22.98 
 H(Fragment=2)         24.66     26.56     22.48 
 H(Fragment=2)         23.55     25.55     22.69 
 O(Fragment=2)         17.09     25.09     15.7 
 H(Fragment=2)         17.17     25.81     15.07 
 H(Fragment=2)         17.02     24.3      15.15 
 O(Fragment=2)         24.03     27.01     19.57 
 H(Fragment=2)         23.78     27.46     20.37 
 H(Fragment=2)         23.35     26.34     19.45 
 O(Fragment=2)         15.31     15.24     24.13 
 H(Fragment=2)         15.73     14.77     23.41 
 H(Fragment=2)         15.28     16.15     23.85 
 O(Fragment=2)         13.88     14.96     19.11 
 H(Fragment=2)         14.05     15.89     19.29 
 H(Fragment=2)         14.02     14.52     19.95 
 O(Fragment=2)         14.61     24.67     21.52 
 H(Fragment=2)         14.44     25.16     20.72 
 H(Fragment=2)         13.74     24.42     21.84 
 O(Fragment=2)         25.52     14.11     18.21 
 H(Fragment=2)         25.17     14.99     18.38 
 H(Fragment=2)         25.17     13.88     17.35 
 O(Fragment=2)         22.23     23.71     26.66 
 H(Fragment=2)         21.73     22.89     26.61 
 H(Fragment=2)         21.56     24.39     26.62 
 O(Fragment=2)         28.14     19.2      19.7 
 H(Fragment=2)         28.9      19.16     20.28 
 H(Fragment=2)         27.39     19.04     20.27 
 O(Fragment=2)         17.77     17.21     26.55 
 H(Fragment=2)         17.34     17.89     27.07 
 H(Fragment=2)         17.19     16.45     26.63 
 O(Fragment=2)         24.63     22.86     25.15 
 H(Fragment=2)         23.85     23.03     25.68 
 H(Fragment=2)         25.33     23.33     25.62 
 O(Fragment=2)         11.88     17.61     19.1 
 H(Fragment=2)         12.82     17.71     19.2 
 H(Fragment=2)         11.55     18.51     18.97 
 O(Fragment=2)         14.1      25.9      19.01 
 H(Fragment=2)         14.82     25.37     18.67 
 H(Fragment=2)         14.14     26.71     18.5 
 O(Fragment=2)         26.92     16.56     16.48 
 H(Fragment=2)         27.68     16.31     17. 
 H(Fragment=2)         26.27     16.83     17.13 
 O(Fragment=2)         27.31     15.58     20.75 
 H(Fragment=2)         27.65     16.09     21.49 
 H(Fragment=2)         26.48     16.       20.53 
 O(Fragment=2)         14.3      21.8      25.03 
 H(Fragment=2)         14.26     20.88     25.28 
 H(Fragment=2)         13.64     22.23     25.58 
 O(Fragment=2)         17.88     21.84     12.2 
 H(Fragment=2)         18.26     22.5      12.78 
 H(Fragment=2)         18.14     22.11     11.33 
 O(Fragment=2)         14.88     25.7      24.29 
 H(Fragment=2)         15.43     24.95     24.04 
 H(Fragment=2)         15.28     26.03     25.1 
 O(Fragment=2)         23.6      27.19     16.46 
 H(Fragment=2)         23.86     27.59     17.28 
 H(Fragment=2)         22.9      26.58     16.69 
 O(Fragment=2)         16.13     22.43     27.25 
 H(Fragment=2)         17.05     22.36     26.97 
 H(Fragment=2)         15.63     22.41     26.43 
 O(Fragment=2)         12.47     16.4      23.03 
 H(Fragment=2)         11.97     17.13     22.67 
 H(Fragment=2)         13.38     16.62     22.83 
 O(Fragment=2)         20.6      27.37     15.24 
 H(Fragment=2)         21.3      27.7      14.68 
 H(Fragment=2)         20.99     26.64     15.72 
 O(Fragment=2)         22.06     14.39     26.46 
 H(Fragment=2)         21.45     14.76     25.82 
 H(Fragment=2)         22.71     15.09     26.59 
 O(Fragment=2)         24.08     13.25     21.2 
 H(Fragment=2)         24.93     12.92     20.89 
 H(Fragment=2)         23.7      12.52     21.69 
 O(Fragment=2)         20.58     12.11     22.65 
 H(Fragment=2)         20.36     12.75     23.32 
 H(Fragment=2)         21.45     11.8      22.89 
 O(Fragment=2)         15.58     13.47     21.33 
 H(Fragment=2)         15.04     12.9      21.87 
 H(Fragment=2)         16.28     12.9      20.99 
 O(Fragment=2)         23.91     16.48     26.72 
 H(Fragment=2)         23.7      17.41     26.63 
 H(Fragment=2)         24.86     16.45     26.8 
 O(Fragment=2)         15.84     20.18     12.27 
 H(Fragment=2)         16.58     20.77     12.2 
 H(Fragment=2)         16.04     19.63     13.03 
 O(Fragment=2)         11.59     20.49     18.18 
 H(Fragment=2)         12.05     20.76     18.97 
 H(Fragment=2)         10.85     21.09     18.12 
 O(Fragment=2)         20.36     18.47     27.93 
 H(Fragment=2)         20.49     18.79     28.83 
 H(Fragment=2)         19.45     18.17     27.91 
 O(Fragment=2)         17.7      13.26     23.96 
 H(Fragment=2)         17.04     13.45     24.62 
 H(Fragment=2)         17.85     12.32     24.03 
 O(Fragment=2)         26.12     23.92     15.71 
 H(Fragment=2)         26.84     24.38     15.28 
 H(Fragment=2)         25.87     24.48     16.45 
 O(Fragment=2)         17.06     11.83     19.67 
 H(Fragment=2)         17.99     12.06     19.67 
 H(Fragment=2)         16.9      11.52     18.77 
 O(Fragment=2)         20.1      14.18     14.12 
 H(Fragment=2)         20.28     14.84     13.46 
 H(Fragment=2)         20.95     13.98     14.51 
 O(Fragment=2)         27.39     21.32     16.01 
 H(Fragment=2)         27.66     21.06     15.13 
 H(Fragment=2)         26.83     22.08     15.88 
 O(Fragment=2)         11.44     19.03     23.28 
 H(Fragment=2)         12.28     19.29     22.91 
 H(Fragment=2)         11.13     19.81     23.75 
 O(Fragment=2)         14.36     18.94     25.98 
 H(Fragment=2)         14.97     19.1      26.7 
 H(Fragment=2)         14.24     17.99     25.97 
 O(Fragment=2)         22.96     16.72     12.08 
 H(Fragment=2)         22.57     15.87     11.9 
 H(Fragment=2)         23.2      16.69     13.01 
 O(Fragment=2)         12.32     23.27     19.09 
 H(Fragment=2)         12.71     24.06     18.72 
 H(Fragment=2)         11.59     23.06     18.51 
 O(Fragment=2)         22.5      13.47     15.3 
 H(Fragment=2)         22.01     12.78     15.76 
 H(Fragment=2)         23.37     13.1      15.17 
 O(Fragment=2)         25.13     23.15     13.34 
 H(Fragment=2)         25.03     22.23     13.6 
 H(Fragment=2)         25.45     23.59     14.12 
 O(Fragment=2)         16.61     27.89     19.35 
 H(Fragment=2)         17.51     28.01     19.06 
 H(Fragment=2)         16.38     28.7      19.8 
 O(Fragment=2)         19.89     10.87     19.59 
 H(Fragment=2)         19.78     11.56     20.25 
 H(Fragment=2)         20.32     11.31     18.86 
 O(Fragment=2)         28.56     18.62     23.64 
 H(Fragment=2)         27.65     18.79     23.4 
 H(Fragment=2)         28.51     18.01     24.38 
 O(Fragment=2)         27.21     25.59     21.69 
 H(Fragment=2)         27.26     25.92     22.58 
 H(Fragment=2)         26.27     25.52     21.51 
 O(Fragment=2)         19.41     24.54     28.2 
 H(Fragment=2)         19.27     24.49     27.25 
 H(Fragment=2)         19.86     25.37     28.33 
 O(Fragment=2)         24.33     21.4      28.1 
 H(Fragment=2)         23.4      21.27     28.26 
 H(Fragment=2)         24.48     21.05     27.22 
 O(Fragment=2)         20.13     15.49     11.75 
 H(Fragment=2)         20.11     16.34     12.18 
 H(Fragment=2)         20.32     15.68     10.84 
 O(Fragment=2)         28.98     21.81     22.59 
 H(Fragment=2)         28.04     21.75     22.75 
 H(Fragment=2)         29.07     22.45     21.88 
 O(Fragment=2)         14.79     14.4      14.67 
 H(Fragment=2)         14.67     15.29     15.01 
 H(Fragment=2)         14.04     13.91     15.01 
 O(Fragment=2)         18.41     20.24     28.92 
 H(Fragment=2)         17.75     19.71     28.47 
 H(Fragment=2)         18.36     19.97     29.83 
 O(Fragment=2)         14.88     15.95     26.78 
 H(Fragment=2)         15.48     15.4      27.28 
 H(Fragment=2)         15.06     15.73     25.86 
 O(Fragment=2)         18.66     26.5      13.7 
 H(Fragment=2)         19.06     26.77     12.88 
 H(Fragment=2)         19.27     26.8      14.38 
 O(Fragment=2)         15.26     27.27     16.58 
 H(Fragment=2)         16.17     27.39     16.82 
 H(Fragment=2)         15.26     26.48     16.03 
 O(Fragment=2)         17.19     24.88     11.89 
 H(Fragment=2)         17.54     24.51     12.69 
 H(Fragment=2)         17.54     24.33     11.19 
 O(Fragment=2)         26.45     16.69     13.93 
 H(Fragment=2)         26.55     16.68     14.88 
 H(Fragment=2)         25.62     16.24     13.77 
 O(Fragment=2)         25.31     14.31     24.6 
 H(Fragment=2)         25.2      14.11     25.53 
 H(Fragment=2)         24.77     13.66     24.16 
 O(Fragment=2)         26.98     25.35     24.24 
 H(Fragment=2)         26.05     25.16     24.13 
 H(Fragment=2)         27.33     24.59     24.72 
 O(Fragment=2)         18.48     19.34     10.66 
 H(Fragment=2)         19.15     18.85     11.13 
 H(Fragment=2)         18.95     20.07     10.25 
 O(Fragment=2)         27.5      22.88     25.66 
 H(Fragment=2)         27.27     22.41     24.86 
 H(Fragment=2)         28.23     22.38     26.03 
 O(Fragment=2)         16.28     17.32     12.1 
 H(Fragment=2)         16.37     18.06     11.5 
 H(Fragment=2)         15.43     17.47     12.53 
 O(Fragment=2)         12.25     24.26     22.27 
 H(Fragment=2)         11.66     24.86     22.72 
 H(Fragment=2)         11.66     23.61     21.86 
 O(Fragment=2)         12.81     13.82     17.08 
 H(Fragment=2)         13.17     14.23     17.86 
 H(Fragment=2)         12.01     14.31     16.89 
 O(Fragment=2)         21.22     21.54     28.99 
 H(Fragment=2)         21.38     22.43     29.33 
 H(Fragment=2)         20.29     21.4      29.12 
 O(Fragment=2)         13.68     17.26     13.2 
 H(Fragment=2)         13.4      17.24     14.11 
 H(Fragment=2)         13.42     16.41     12.84 
 
 NAtoms=    385 NQM=      385 NQMF=       0 NMMI=      0 NMMIF=      0
                NMic=       0 NMicF=      0.
                    Isotopes and Nuclear Properties:
 (Nuclear quadrupole moments (NQMom) in fm**2, nuclear magnetic moments (NMagM)
  in nuclear magnetons)

  Atom         1           2           3           4           5           6           7           8           9          10
 IAtWgt=          79          16           1           1          16           1           1          16           1           1
 AtmWgt=  78.9183361  15.9949146   1.0078250   1.0078250  15.9949146   1.0078250   1.0078250  15.9949146   1.0078250   1.0078250
 NucSpn=           3           0           1           1           0           1           1           0           1           1
 AtZEff=   0.0000000   0.0000000   0.0000000   0.0000000   0.0000000   0.0000000   0.0000000   0.0000000   0.0000000   0.0000000
 NQMom=   31.3000000   0.0000000   0.0000000   0.0000000   0.0000000   0.0000000   0.0000000   0.0000000   0.0000000   0.0000000
 NMagM=    2.1063990   0.0000000   2.7928460   2.7928460   0.0000000   2.7928460   2.7928460   0.0000000   2.7928460   2.7928460
 AtZNuc=  35.0000000   8.0000000   1.0000000   1.0000000   8.0000000   1.0000000   1.0000000   8.0000000   1.0000000   1.0000000

  Atom        11          12          13          14          15          16          17          18          19          20
 IAtWgt=          16           1           1          16           1           1          16           1           1          16
 AtmWgt=  15.9949146   1.0078250   1.0078250  15.9949146   1.0078250   1.0078250  15.9949146   1.0078250   1.0078250  15.9949146
 NucSpn=           0           1           1           0           1           1           0           1           1           0
 AtZEff=   0.0000000   0.0000000   0.0000000   0.0000000   0.0000000   0.0000000   0.0000000   0.0000000   0.0000000   0.0000000
 NQMom=    0.0000000   0.0000000   0.0000000   0.0000000   0.0000000   0.0000000   0.0000000   0.0000000   0.0000000   0.0000000
 NMagM=    0.0000000   2.7928460   2.7928460   0.0000000   2.7928460   2.7928460   0.0000000   2.7928460   2.7928460   0.0000000
 AtZNuc=   8.0000000   1.0000000   1.0000000   8.0000000   1.0000000   1.0000000   8.0000000   1.0000000   1.0000000   8.0000000

  Atom        21          22          23          24          25          26          27          28          29          30
 IAtWgt=           1           1          16           1           1          16           1           1          16           1
 AtmWgt=   1.0078250   1.0078250  15.9949146   1.0078250   1.0078250  15.9949146   1.0078250   1.0078250  15.9949146   1.0078250
 NucSpn=           1           1           0           1           1           0           1           1           0           1
 AtZEff=   0.0000000   0.0000000   0.0000000   0.0000000   0.0000000   0.0000000   0.0000000   0.0000000   0.0000000   0.0000000
 NQMom=    0.0000000   0.0000000   0.0000000   0.0000000   0.0000000   0.0000000   0.0000000   0.0000000   0.0000000   0.0000000
 NMagM=    2.7928460   2.7928460   0.0000000   2.7928460   2.7928460   0.0000000   2.7928460   2.7928460   0.0000000   2.7928460
 AtZNuc=   1.0000000   1.0000000   8.0000000   1.0000000   1.0000000   8.0000000   1.0000000   1.0000000   8.0000000   1.0000000

  Atom        31          32          33          34          35          36          37          38          39          40
 IAtWgt=           1          16           1           1          16           1           1          16           1           1
 AtmWgt=   1.0078250  15.9949146   1.0078250   1.0078250  15.9949146   1.0078250   1.0078250  15.9949146   1.0078250   1.0078250
 NucSpn=           1           0           1           1           0           1           1           0           1           1
 AtZEff=   0.0000000   0.0000000   0.0000000   0.0000000   0.0000000   0.0000000   0.0000000   0.0000000   0.0000000   0.0000000
 NQMom=    0.0000000   0.0000000   0.0000000   0.0000000   0.0000000   0.0000000   0.0000000   0.0000000   0.0000000   0.0000000
 NMagM=    2.7928460   0.0000000   2.7928460   2.7928460   0.0000000   2.7928460   2.7928460   0.0000000   2.7928460   2.7928460
 AtZNuc=   1.0000000   8.0000000   1.0000000   1.0000000   8.0000000   1.0000000   1.0000000   8.0000000   1.0000000   1.0000000

  Atom        41          42          43          44          45          46          47          48          49          50
 IAtWgt=          16           1           1          16           1           1          16           1           1          16
 AtmWgt=  15.9949146   1.0078250   1.0078250  15.9949146   1.0078250   1.0078250  15.9949146   1.0078250   1.0078250  15.9949146
 NucSpn=           0           1           1           0           1           1           0           1           1           0
 AtZEff=   0.0000000   0.0000000   0.0000000   0.0000000   0.0000000   0.0000000   0.0000000   0.0000000   0.0000000   0.0000000
 NQMom=    0.0000000   0.0000000   0.0000000   0.0000000   0.0000000   0.0000000   0.0000000   0.0000000   0.0000000   0.0000000
 NMagM=    0.0000000   2.7928460   2.7928460   0.0000000   2.7928460   2.7928460   0.0000000   2.7928460   2.7928460   0.0000000
 AtZNuc=   8.0000000   1.0000000   1.0000000   8.0000000   1.0000000   1.0000000   8.0000000   1.0000000   1.0000000   8.0000000

  Atom        51          52          53          54          55          56          57          58          59          60
 IAtWgt=           1           1          16           1           1          16           1           1          16           1
 AtmWgt=   1.0078250   1.0078250  15.9949146   1.0078250   1.0078250  15.9949146   1.0078250   1.0078250  15.9949146   1.0078250
 NucSpn=           1           1           0           1           1           0           1           1           0           1
 AtZEff=   0.0000000   0.0000000   0.0000000   0.0000000   0.0000000   0.0000000   0.0000000   0.0000000   0.0000000   0.0000000
 NQMom=    0.0000000   0.0000000   0.0000000   0.0000000   0.0000000   0.0000000   0.0000000   0.0000000   0.0000000   0.0000000
 NMagM=    2.7928460   2.7928460   0.0000000   2.7928460   2.7928460   0.0000000   2.7928460   2.7928460   0.0000000   2.7928460
 AtZNuc=   1.0000000   1.0000000   8.0000000   1.0000000   1.0000000   8.0000000   1.0000000   1.0000000   8.0000000   1.0000000

  Atom        61          62          63          64          65          66          67          68          69          70
 IAtWgt=           1          16           1           1          16           1           1          16           1           1
 AtmWgt=   1.0078250  15.9949146   1.0078250   1.0078250  15.9949146   1.0078250   1.0078250  15.9949146   1.0078250   1.0078250
 NucSpn=           1           0           1           1           0           1           1           0           1           1
 AtZEff=   0.0000000   0.0000000   0.0000000   0.0000000   0.0000000   0.0000000   0.0000000   0.0000000   0.0000000   0.0000000
 NQMom=    0.0000000   0.0000000   0.0000000   0.0000000   0.0000000   0.0000000   0.0000000   0.0000000   0.0000000   0.0000000
 NMagM=    2.7928460   0.0000000   2.7928460   2.7928460   0.0000000   2.7928460   2.7928460   0.0000000   2.7928460   2.7928460
 AtZNuc=   1.0000000   8.0000000   1.0000000   1.0000000   8.0000000   1.0000000   1.0000000   8.0000000   1.0000000   1.0000000

  Atom        71          72          73          74          75          76          77          78          79          80
 IAtWgt=          16           1           1          16           1           1          16           1           1          16
 AtmWgt=  15.9949146   1.0078250   1.0078250  15.9949146   1.0078250   1.0078250  15.9949146   1.0078250   1.0078250  15.9949146
 NucSpn=           0           1           1           0           1           1           0           1           1           0
 AtZEff=   0.0000000   0.0000000   0.0000000   0.0000000   0.0000000   0.0000000   0.0000000   0.0000000   0.0000000   0.0000000
 NQMom=    0.0000000   0.0000000   0.0000000   0.0000000   0.0000000   0.0000000   0.0000000   0.0000000   0.0000000   0.0000000
 NMagM=    0.0000000   2.7928460   2.7928460   0.0000000   2.7928460   2.7928460   0.0000000   2.7928460   2.7928460   0.0000000
 AtZNuc=   8.0000000   1.0000000   1.0000000   8.0000000   1.0000000   1.0000000   8.0000000   1.0000000   1.0000000   8.0000000

  Atom        81          82          83          84          85          86          87          88          89          90
 IAtWgt=           1           1          16           1           1          16           1           1          16           1
 AtmWgt=   1.0078250   1.0078250  15.9949146   1.0078250   1.0078250  15.9949146   1.0078250   1.0078250  15.9949146   1.0078250
 NucSpn=           1           1           0           1           1           0           1           1           0           1
 AtZEff=   0.0000000   0.0000000   0.0000000   0.0000000   0.0000000   0.0000000   0.0000000   0.0000000   0.0000000   0.0000000
 NQMom=    0.0000000   0.0000000   0.0000000   0.0000000   0.0000000   0.0000000   0.0000000   0.0000000   0.0000000   0.0000000
 NMagM=    2.7928460   2.7928460   0.0000000   2.7928460   2.7928460   0.0000000   2.7928460   2.7928460   0.0000000   2.7928460
 AtZNuc=   1.0000000   1.0000000   8.0000000   1.0000000   1.0000000   8.0000000   1.0000000   1.0000000   8.0000000   1.0000000

  Atom        91          92          93          94          95          96          97          98          99         100
 IAtWgt=           1          16           1           1          16           1           1          16           1           1
 AtmWgt=   1.0078250  15.9949146   1.0078250   1.0078250  15.9949146   1.0078250   1.0078250  15.9949146   1.0078250   1.0078250
 NucSpn=           1           0           1           1           0           1           1           0           1           1
 AtZEff=   0.0000000   0.0000000   0.0000000   0.0000000   0.0000000   0.0000000   0.0000000   0.0000000   0.0000000   0.0000000
 NQMom=    0.0000000   0.0000000   0.0000000   0.0000000   0.0000000   0.0000000   0.0000000   0.0000000   0.0000000   0.0000000
 NMagM=    2.7928460   0.0000000   2.7928460   2.7928460   0.0000000   2.7928460   2.7928460   0.0000000   2.7928460   2.7928460
 AtZNuc=   1.0000000   8.0000000   1.0000000   1.0000000   8.0000000   1.0000000   1.0000000   8.0000000   1.0000000   1.0000000

  Atom       101         102         103         104         105         106         107         108         109         110
 IAtWgt=          16           1           1          16           1           1          16           1           1          16
 AtmWgt=  15.9949146   1.0078250   1.0078250  15.9949146   1.0078250   1.0078250  15.9949146   1.0078250   1.0078250  15.9949146
 NucSpn=           0           1           1           0           1           1           0           1           1           0
 AtZEff=   0.0000000   0.0000000   0.0000000   0.0000000   0.0000000   0.0000000   0.0000000   0.0000000   0.0000000   0.0000000
 NQMom=    0.0000000   0.0000000   0.0000000   0.0000000   0.0000000   0.0000000   0.0000000   0.0000000   0.0000000   0.0000000
 NMagM=    0.0000000   2.7928460   2.7928460   0.0000000   2.7928460   2.7928460   0.0000000   2.7928460   2.7928460   0.0000000
 AtZNuc=   8.0000000   1.0000000   1.0000000   8.0000000   1.0000000   1.0000000   8.0000000   1.0000000   1.0000000   8.0000000

  Atom       111         112         113         114         115         116         117         118         119         120
 IAtWgt=           1           1          16           1           1          16           1           1          16           1
 AtmWgt=   1.0078250   1.0078250  15.9949146   1.0078250   1.0078250  15.9949146   1.0078250   1.0078250  15.9949146   1.0078250
 NucSpn=           1           1           0           1           1           0           1           1           0           1
 AtZEff=   0.0000000   0.0000000   0.0000000   0.0000000   0.0000000   0.0000000   0.0000000   0.0000000   0.0000000   0.0000000
 NQMom=    0.0000000   0.0000000   0.0000000   0.0000000   0.0000000   0.0000000   0.0000000   0.0000000   0.0000000   0.0000000
 NMagM=    2.7928460   2.7928460   0.0000000   2.7928460   2.7928460   0.0000000   2.7928460   2.7928460   0.0000000   2.7928460
 AtZNuc=   1.0000000   1.0000000   8.0000000   1.0000000   1.0000000   8.0000000   1.0000000   1.0000000   8.0000000   1.0000000

  Atom       121         122         123         124         125         126         127         128         129         130
 IAtWgt=           1          16           1           1          16           1           1          16           1           1
 AtmWgt=   1.0078250  15.9949146   1.0078250   1.0078250  15.9949146   1.0078250   1.0078250  15.9949146   1.0078250   1.0078250
 NucSpn=           1           0           1           1           0           1           1           0           1           1
 AtZEff=   0.0000000   0.0000000   0.0000000   0.0000000   0.0000000   0.0000000   0.0000000   0.0000000   0.0000000   0.0000000
 NQMom=    0.0000000   0.0000000   0.0000000   0.0000000   0.0000000   0.0000000   0.0000000   0.0000000   0.0000000   0.0000000
 NMagM=    2.7928460   0.0000000   2.7928460   2.7928460   0.0000000   2.7928460   2.7928460   0.0000000   2.7928460   2.7928460
 AtZNuc=   1.0000000   8.0000000   1.0000000   1.0000000   8.0000000   1.0000000   1.0000000   8.0000000   1.0000000   1.0000000

  Atom       131         132         133         134         135         136         137         138         139         140
 IAtWgt=          16           1           1          16           1           1          16           1           1          16
 AtmWgt=  15.9949146   1.0078250   1.0078250  15.9949146   1.0078250   1.0078250  15.9949146   1.0078250   1.0078250  15.9949146
 NucSpn=           0           1           1           0           1           1           0           1           1           0
 AtZEff=   0.0000000   0.0000000   0.0000000   0.0000000   0.0000000   0.0000000   0.0000000   0.0000000   0.0000000   0.0000000
 NQMom=    0.0000000   0.0000000   0.0000000   0.0000000   0.0000000   0.0000000   0.0000000   0.0000000   0.0000000   0.0000000
 NMagM=    0.0000000   2.7928460   2.7928460   0.0000000   2.7928460   2.7928460   0.0000000   2.7928460   2.7928460   0.0000000
 AtZNuc=   8.0000000   1.0000000   1.0000000   8.0000000   1.0000000   1.0000000   8.0000000   1.0000000   1.0000000   8.0000000

  Atom       141         142         143         144         145         146         147         148         149         150
 IAtWgt=           1           1          16           1           1          16           1           1          16           1
 AtmWgt=   1.0078250   1.0078250  15.9949146   1.0078250   1.0078250  15.9949146   1.0078250   1.0078250  15.9949146   1.0078250
 NucSpn=           1           1           0           1           1           0           1           1           0           1
 AtZEff=   0.0000000   0.0000000   0.0000000   0.0000000   0.0000000   0.0000000   0.0000000   0.0000000   0.0000000   0.0000000
 NQMom=    0.0000000   0.0000000   0.0000000   0.0000000   0.0000000   0.0000000   0.0000000   0.0000000   0.0000000   0.0000000
 NMagM=    2.7928460   2.7928460   0.0000000   2.7928460   2.7928460   0.0000000   2.7928460   2.7928460   0.0000000   2.7928460
 AtZNuc=   1.0000000   1.0000000   8.0000000   1.0000000   1.0000000   8.0000000   1.0000000   1.0000000   8.0000000   1.0000000

  Atom       151         152         153         154         155         156         157         158         159         160
 IAtWgt=           1          16           1           1          16           1           1          16           1           1
 AtmWgt=   1.0078250  15.9949146   1.0078250   1.0078250  15.9949146   1.0078250   1.0078250  15.9949146   1.0078250   1.0078250
 NucSpn=           1           0           1           1           0           1           1           0           1           1
 AtZEff=   0.0000000   0.0000000   0.0000000   0.0000000   0.0000000   0.0000000   0.0000000   0.0000000   0.0000000   0.0000000
 NQMom=    0.0000000   0.0000000   0.0000000   0.0000000   0.0000000   0.0000000   0.0000000   0.0000000   0.0000000   0.0000000
 NMagM=    2.7928460   0.0000000   2.7928460   2.7928460   0.0000000   2.7928460   2.7928460   0.0000000   2.7928460   2.7928460
 AtZNuc=   1.0000000   8.0000000   1.0000000   1.0000000   8.0000000   1.0000000   1.0000000   8.0000000   1.0000000   1.0000000

  Atom       161         162         163         164         165         166         167         168         169         170
 IAtWgt=          16           1           1          16           1           1          16           1           1          16
 AtmWgt=  15.9949146   1.0078250   1.0078250  15.9949146   1.0078250   1.0078250  15.9949146   1.0078250   1.0078250  15.9949146
 NucSpn=           0           1           1           0           1           1           0           1           1           0
 AtZEff=   0.0000000   0.0000000   0.0000000   0.0000000   0.0000000   0.0000000   0.0000000   0.0000000   0.0000000   0.0000000
 NQMom=    0.0000000   0.0000000   0.0000000   0.0000000   0.0000000   0.0000000   0.0000000   0.0000000   0.0000000   0.0000000
 NMagM=    0.0000000   2.7928460   2.7928460   0.0000000   2.7928460   2.7928460   0.0000000   2.7928460   2.7928460   0.0000000
 AtZNuc=   8.0000000   1.0000000   1.0000000   8.0000000   1.0000000   1.0000000   8.0000000   1.0000000   1.0000000   8.0000000

  Atom       171         172         173         174         175         176         177         178         179         180
 IAtWgt=           1           1          16           1           1          16           1           1          16           1
 AtmWgt=   1.0078250   1.0078250  15.9949146   1.0078250   1.0078250  15.9949146   1.0078250   1.0078250  15.9949146   1.0078250
 NucSpn=           1           1           0           1           1           0           1           1           0           1
 AtZEff=   0.0000000   0.0000000   0.0000000   0.0000000   0.0000000   0.0000000   0.0000000   0.0000000   0.0000000   0.0000000
 NQMom=    0.0000000   0.0000000   0.0000000   0.0000000   0.0000000   0.0000000   0.0000000   0.0000000   0.0000000   0.0000000
 NMagM=    2.7928460   2.7928460   0.0000000   2.7928460   2.7928460   0.0000000   2.7928460   2.7928460   0.0000000   2.7928460
 AtZNuc=   1.0000000   1.0000000   8.0000000   1.0000000   1.0000000   8.0000000   1.0000000   1.0000000   8.0000000   1.0000000

  Atom       181         182         183         184         185         186         187         188         189         190
 IAtWgt=           1          16           1           1          16           1           1          16           1           1
 AtmWgt=   1.0078250  15.9949146   1.0078250   1.0078250  15.9949146   1.0078250   1.0078250  15.9949146   1.0078250   1.0078250
 NucSpn=           1           0           1           1           0           1           1           0           1           1
 AtZEff=   0.0000000   0.0000000   0.0000000   0.0000000   0.0000000   0.0000000   0.0000000   0.0000000   0.0000000   0.0000000
 NQMom=    0.0000000   0.0000000   0.0000000   0.0000000   0.0000000   0.0000000   0.0000000   0.0000000   0.0000000   0.0000000
 NMagM=    2.7928460   0.0000000   2.7928460   2.7928460   0.0000000   2.7928460   2.7928460   0.0000000   2.7928460   2.7928460
 AtZNuc=   1.0000000   8.0000000   1.0000000   1.0000000   8.0000000   1.0000000   1.0000000   8.0000000   1.0000000   1.0000000

  Atom       191         192         193         194         195         196         197         198         199         200
 IAtWgt=          16           1           1          16           1           1          16           1           1          16
 AtmWgt=  15.9949146   1.0078250   1.0078250  15.9949146   1.0078250   1.0078250  15.9949146   1.0078250   1.0078250  15.9949146
 NucSpn=           0           1           1           0           1           1           0           1           1           0
 AtZEff=   0.0000000   0.0000000   0.0000000   0.0000000   0.0000000   0.0000000   0.0000000   0.0000000   0.0000000   0.0000000
 NQMom=    0.0000000   0.0000000   0.0000000   0.0000000   0.0000000   0.0000000   0.0000000   0.0000000   0.0000000   0.0000000
 NMagM=    0.0000000   2.7928460   2.7928460   0.0000000   2.7928460   2.7928460   0.0000000   2.7928460   2.7928460   0.0000000
 AtZNuc=   8.0000000   1.0000000   1.0000000   8.0000000   1.0000000   1.0000000   8.0000000   1.0000000   1.0000000   8.0000000

  Atom       201         202         203         204         205         206         207         208         209         210
 IAtWgt=           1           1          16           1           1          16           1           1          16           1
 AtmWgt=   1.0078250   1.0078250  15.9949146   1.0078250   1.0078250  15.9949146   1.0078250   1.0078250  15.9949146   1.0078250
 NucSpn=           1           1           0           1           1           0           1           1           0           1
 AtZEff=   0.0000000   0.0000000   0.0000000   0.0000000   0.0000000   0.0000000   0.0000000   0.0000000   0.0000000   0.0000000
 NQMom=    0.0000000   0.0000000   0.0000000   0.0000000   0.0000000   0.0000000   0.0000000   0.0000000   0.0000000   0.0000000
 NMagM=    2.7928460   2.7928460   0.0000000   2.7928460   2.7928460   0.0000000   2.7928460   2.7928460   0.0000000   2.7928460
 AtZNuc=   1.0000000   1.0000000   8.0000000   1.0000000   1.0000000   8.0000000   1.0000000   1.0000000   8.0000000   1.0000000

  Atom       211         212         213         214         215         216         217         218         219         220
 IAtWgt=           1          16           1           1          16           1           1          16           1           1
 AtmWgt=   1.0078250  15.9949146   1.0078250   1.0078250  15.9949146   1.0078250   1.0078250  15.9949146   1.0078250   1.0078250
 NucSpn=           1           0           1           1           0           1           1           0           1           1
 AtZEff=   0.0000000   0.0000000   0.0000000   0.0000000   0.0000000   0.0000000   0.0000000   0.0000000   0.0000000   0.0000000
 NQMom=    0.0000000   0.0000000   0.0000000   0.0000000   0.0000000   0.0000000   0.0000000   0.0000000   0.0000000   0.0000000
 NMagM=    2.7928460   0.0000000   2.7928460   2.7928460   0.0000000   2.7928460   2.7928460   0.0000000   2.7928460   2.7928460
 AtZNuc=   1.0000000   8.0000000   1.0000000   1.0000000   8.0000000   1.0000000   1.0000000   8.0000000   1.0000000   1.0000000

  Atom       221         222         223         224         225         226         227         228         229         230
 IAtWgt=          16           1           1          16           1           1          16           1           1          16
 AtmWgt=  15.9949146   1.0078250   1.0078250  15.9949146   1.0078250   1.0078250  15.9949146   1.0078250   1.0078250  15.9949146
 NucSpn=           0           1           1           0           1           1           0           1           1           0
 AtZEff=   0.0000000   0.0000000   0.0000000   0.0000000   0.0000000   0.0000000   0.0000000   0.0000000   0.0000000   0.0000000
 NQMom=    0.0000000   0.0000000   0.0000000   0.0000000   0.0000000   0.0000000   0.0000000   0.0000000   0.0000000   0.0000000
 NMagM=    0.0000000   2.7928460   2.7928460   0.0000000   2.7928460   2.7928460   0.0000000   2.7928460   2.7928460   0.0000000
 AtZNuc=   8.0000000   1.0000000   1.0000000   8.0000000   1.0000000   1.0000000   8.0000000   1.0000000   1.0000000   8.0000000

  Atom       231         232         233         234         235         236         237         238         239         240
 IAtWgt=           1           1          16           1           1          16           1           1          16           1
 AtmWgt=   1.0078250   1.0078250  15.9949146   1.0078250   1.0078250  15.9949146   1.0078250   1.0078250  15.9949146   1.0078250
 NucSpn=           1           1           0           1           1           0           1           1           0           1
 AtZEff=   0.0000000   0.0000000   0.0000000   0.0000000   0.0000000   0.0000000   0.0000000   0.0000000   0.0000000   0.0000000
 NQMom=    0.0000000   0.0000000   0.0000000   0.0000000   0.0000000   0.0000000   0.0000000   0.0000000   0.0000000   0.0000000
 NMagM=    2.7928460   2.7928460   0.0000000   2.7928460   2.7928460   0.0000000   2.7928460   2.7928460   0.0000000   2.7928460
 AtZNuc=   1.0000000   1.0000000   8.0000000   1.0000000   1.0000000   8.0000000   1.0000000   1.0000000   8.0000000   1.0000000

  Atom       241         242         243         244         245         246         247         248         249         250
 IAtWgt=           1          16           1           1          16           1           1          16           1           1
 AtmWgt=   1.0078250  15.9949146   1.0078250   1.0078250  15.9949146   1.0078250   1.0078250  15.9949146   1.0078250   1.0078250
 NucSpn=           1           0           1           1           0           1           1           0           1           1
 AtZEff=   0.0000000   0.0000000   0.0000000   0.0000000   0.0000000   0.0000000   0.0000000   0.0000000   0.0000000   0.0000000
 NQMom=    0.0000000   0.0000000   0.0000000   0.0000000   0.0000000   0.0000000   0.0000000   0.0000000   0.0000000   0.0000000
 NMagM=    2.7928460   0.0000000   2.7928460   2.7928460   0.0000000   2.7928460   2.7928460   0.0000000   2.7928460   2.7928460
 AtZNuc=   1.0000000   8.0000000   1.0000000   1.0000000   8.0000000   1.0000000   1.0000000   8.0000000   1.0000000   1.0000000

  Atom       251         252         253         254         255         256         257         258         259         260
 IAtWgt=          16           1           1          16           1           1          16           1           1          16
 AtmWgt=  15.9949146   1.0078250   1.0078250  15.9949146   1.0078250   1.0078250  15.9949146   1.0078250   1.0078250  15.9949146
 NucSpn=           0           1           1           0           1           1           0           1           1           0
 AtZEff=   0.0000000   0.0000000   0.0000000   0.0000000   0.0000000   0.0000000   0.0000000   0.0000000   0.0000000   0.0000000
 NQMom=    0.0000000   0.0000000   0.0000000   0.0000000   0.0000000   0.0000000   0.0000000   0.0000000   0.0000000   0.0000000
 NMagM=    0.0000000   2.7928460   2.7928460   0.0000000   2.7928460   2.7928460   0.0000000   2.7928460   2.7928460   0.0000000
 AtZNuc=   8.0000000   1.0000000   1.0000000   8.0000000   1.0000000   1.0000000   8.0000000   1.0000000   1.0000000   8.0000000

  Atom       261         262         263         264         265         266         267         268         269         270
 IAtWgt=           1           1          16           1           1          16           1           1          16           1
 AtmWgt=   1.0078250   1.0078250  15.9949146   1.0078250   1.0078250  15.9949146   1.0078250   1.0078250  15.9949146   1.0078250
 NucSpn=           1           1           0           1           1           0           1           1           0           1
 AtZEff=   0.0000000   0.0000000   0.0000000   0.0000000   0.0000000   0.0000000   0.0000000   0.0000000   0.0000000   0.0000000
 NQMom=    0.0000000   0.0000000   0.0000000   0.0000000   0.0000000   0.0000000   0.0000000   0.0000000   0.0000000   0.0000000
 NMagM=    2.7928460   2.7928460   0.0000000   2.7928460   2.7928460   0.0000000   2.7928460   2.7928460   0.0000000   2.7928460
 AtZNuc=   1.0000000   1.0000000   8.0000000   1.0000000   1.0000000   8.0000000   1.0000000   1.0000000   8.0000000   1.0000000

  Atom       271         272         273         274         275         276         277         278         279         280
 IAtWgt=           1          16           1           1          16           1           1          16           1           1
 AtmWgt=   1.0078250  15.9949146   1.0078250   1.0078250  15.9949146   1.0078250   1.0078250  15.9949146   1.0078250   1.0078250
 NucSpn=           1           0           1           1           0           1           1           0           1           1
 AtZEff=   0.0000000   0.0000000   0.0000000   0.0000000   0.0000000   0.0000000   0.0000000   0.0000000   0.0000000   0.0000000
 NQMom=    0.0000000   0.0000000   0.0000000   0.0000000   0.0000000   0.0000000   0.0000000   0.0000000   0.0000000   0.0000000
 NMagM=    2.7928460   0.0000000   2.7928460   2.7928460   0.0000000   2.7928460   2.7928460   0.0000000   2.7928460   2.7928460
 AtZNuc=   1.0000000   8.0000000   1.0000000   1.0000000   8.0000000   1.0000000   1.0000000   8.0000000   1.0000000   1.0000000

  Atom       281         282         283         284         285         286         287         288         289         290
 IAtWgt=          16           1           1          16           1           1          16           1           1          16
 AtmWgt=  15.9949146   1.0078250   1.0078250  15.9949146   1.0078250   1.0078250  15.9949146   1.0078250   1.0078250  15.9949146
 NucSpn=           0           1           1           0           1           1           0           1           1           0
 AtZEff=   0.0000000   0.0000000   0.0000000   0.0000000   0.0000000   0.0000000   0.0000000   0.0000000   0.0000000   0.0000000
 NQMom=    0.0000000   0.0000000   0.0000000   0.0000000   0.0000000   0.0000000   0.0000000   0.0000000   0.0000000   0.0000000
 NMagM=    0.0000000   2.7928460   2.7928460   0.0000000   2.7928460   2.7928460   0.0000000   2.7928460   2.7928460   0.0000000
 AtZNuc=   8.0000000   1.0000000   1.0000000   8.0000000   1.0000000   1.0000000   8.0000000   1.0000000   1.0000000   8.0000000

  Atom       291         292         293         294         295         296         297         298         299         300
 IAtWgt=           1           1          16           1           1          16           1           1          16           1
 AtmWgt=   1.0078250   1.0078250  15.9949146   1.0078250   1.0078250  15.9949146   1.0078250   1.0078250  15.9949146   1.0078250
 NucSpn=           1           1           0           1           1           0           1           1           0           1
 AtZEff=   0.0000000   0.0000000   0.0000000   0.0000000   0.0000000   0.0000000   0.0000000   0.0000000   0.0000000   0.0000000
 NQMom=    0.0000000   0.0000000   0.0000000   0.0000000   0.0000000   0.0000000   0.0000000   0.0000000   0.0000000   0.0000000
 NMagM=    2.7928460   2.7928460   0.0000000   2.7928460   2.7928460   0.0000000   2.7928460   2.7928460   0.0000000   2.7928460
 AtZNuc=   1.0000000   1.0000000   8.0000000   1.0000000   1.0000000   8.0000000   1.0000000   1.0000000   8.0000000   1.0000000

  Atom       301         302         303         304         305         306         307         308         309         310
 IAtWgt=           1          16           1           1          16           1           1          16           1           1
 AtmWgt=   1.0078250  15.9949146   1.0078250   1.0078250  15.9949146   1.0078250   1.0078250  15.9949146   1.0078250   1.0078250
 NucSpn=           1           0           1           1           0           1           1           0           1           1
 AtZEff=   0.0000000   0.0000000   0.0000000   0.0000000   0.0000000   0.0000000   0.0000000   0.0000000   0.0000000   0.0000000
 NQMom=    0.0000000   0.0000000   0.0000000   0.0000000   0.0000000   0.0000000   0.0000000   0.0000000   0.0000000   0.0000000
 NMagM=    2.7928460   0.0000000   2.7928460   2.7928460   0.0000000   2.7928460   2.7928460   0.0000000   2.7928460   2.7928460
 AtZNuc=   1.0000000   8.0000000   1.0000000   1.0000000   8.0000000   1.0000000   1.0000000   8.0000000   1.0000000   1.0000000

  Atom       311         312         313         314         315         316         317         318         319         320
 IAtWgt=          16           1           1          16           1           1          16           1           1          16
 AtmWgt=  15.9949146   1.0078250   1.0078250  15.9949146   1.0078250   1.0078250  15.9949146   1.0078250   1.0078250  15.9949146
 NucSpn=           0           1           1           0           1           1           0           1           1           0
 AtZEff=   0.0000000   0.0000000   0.0000000   0.0000000   0.0000000   0.0000000   0.0000000   0.0000000   0.0000000   0.0000000
 NQMom=    0.0000000   0.0000000   0.0000000   0.0000000   0.0000000   0.0000000   0.0000000   0.0000000   0.0000000   0.0000000
 NMagM=    0.0000000   2.7928460   2.7928460   0.0000000   2.7928460   2.7928460   0.0000000   2.7928460   2.7928460   0.0000000
 AtZNuc=   8.0000000   1.0000000   1.0000000   8.0000000   1.0000000   1.0000000   8.0000000   1.0000000   1.0000000   8.0000000

  Atom       321         322         323         324         325         326         327         328         329         330
 IAtWgt=           1           1          16           1           1          16           1           1          16           1
 AtmWgt=   1.0078250   1.0078250  15.9949146   1.0078250   1.0078250  15.9949146   1.0078250   1.0078250  15.9949146   1.0078250
 NucSpn=           1           1           0           1           1           0           1           1           0           1
 AtZEff=   0.0000000   0.0000000   0.0000000   0.0000000   0.0000000   0.0000000   0.0000000   0.0000000   0.0000000   0.0000000
 NQMom=    0.0000000   0.0000000   0.0000000   0.0000000   0.0000000   0.0000000   0.0000000   0.0000000   0.0000000   0.0000000
 NMagM=    2.7928460   2.7928460   0.0000000   2.7928460   2.7928460   0.0000000   2.7928460   2.7928460   0.0000000   2.7928460
 AtZNuc=   1.0000000   1.0000000   8.0000000   1.0000000   1.0000000   8.0000000   1.0000000   1.0000000   8.0000000   1.0000000

  Atom       331         332         333         334         335         336         337         338         339         340
 IAtWgt=           1          16           1           1          16           1           1          16           1           1
 AtmWgt=   1.0078250  15.9949146   1.0078250   1.0078250  15.9949146   1.0078250   1.0078250  15.9949146   1.0078250   1.0078250
 NucSpn=           1           0           1           1           0           1           1           0           1           1
 AtZEff=   0.0000000   0.0000000   0.0000000   0.0000000   0.0000000   0.0000000   0.0000000   0.0000000   0.0000000   0.0000000
 NQMom=    0.0000000   0.0000000   0.0000000   0.0000000   0.0000000   0.0000000   0.0000000   0.0000000   0.0000000   0.0000000
 NMagM=    2.7928460   0.0000000   2.7928460   2.7928460   0.0000000   2.7928460   2.7928460   0.0000000   2.7928460   2.7928460
 AtZNuc=   1.0000000   8.0000000   1.0000000   1.0000000   8.0000000   1.0000000   1.0000000   8.0000000   1.0000000   1.0000000

  Atom       341         342         343         344         345         346         347         348         349         350
 IAtWgt=          16           1           1          16           1           1          16           1           1          16
 AtmWgt=  15.9949146   1.0078250   1.0078250  15.9949146   1.0078250   1.0078250  15.9949146   1.0078250   1.0078250  15.9949146
 NucSpn=           0           1           1           0           1           1           0           1           1           0
 AtZEff=   0.0000000   0.0000000   0.0000000   0.0000000   0.0000000   0.0000000   0.0000000   0.0000000   0.0000000   0.0000000
 NQMom=    0.0000000   0.0000000   0.0000000   0.0000000   0.0000000   0.0000000   0.0000000   0.0000000   0.0000000   0.0000000
 NMagM=    0.0000000   2.7928460   2.7928460   0.0000000   2.7928460   2.7928460   0.0000000   2.7928460   2.7928460   0.0000000
 AtZNuc=   8.0000000   1.0000000   1.0000000   8.0000000   1.0000000   1.0000000   8.0000000   1.0000000   1.0000000   8.0000000

  Atom       351         352         353         354         355         356         357         358         359         360
 IAtWgt=           1           1          16           1           1          16           1           1          16           1
 AtmWgt=   1.0078250   1.0078250  15.9949146   1.0078250   1.0078250  15.9949146   1.0078250   1.0078250  15.9949146   1.0078250
 NucSpn=           1           1           0           1           1           0           1           1           0           1
 AtZEff=   0.0000000   0.0000000   0.0000000   0.0000000   0.0000000   0.0000000   0.0000000   0.0000000   0.0000000   0.0000000
 NQMom=    0.0000000   0.0000000   0.0000000   0.0000000   0.0000000   0.0000000   0.0000000   0.0000000   0.0000000   0.0000000
 NMagM=    2.7928460   2.7928460   0.0000000   2.7928460   2.7928460   0.0000000   2.7928460   2.7928460   0.0000000   2.7928460
 AtZNuc=   1.0000000   1.0000000   8.0000000   1.0000000   1.0000000   8.0000000   1.0000000   1.0000000   8.0000000   1.0000000

  Atom       361         362         363         364         365         366         367         368         369         370
 IAtWgt=           1          16           1           1          16           1           1          16           1           1
 AtmWgt=   1.0078250  15.9949146   1.0078250   1.0078250  15.9949146   1.0078250   1.0078250  15.9949146   1.0078250   1.0078250
 NucSpn=           1           0           1           1           0           1           1           0           1           1
 AtZEff=   0.0000000   0.0000000   0.0000000   0.0000000   0.0000000   0.0000000   0.0000000   0.0000000   0.0000000   0.0000000
 NQMom=    0.0000000   0.0000000   0.0000000   0.0000000   0.0000000   0.0000000   0.0000000   0.0000000   0.0000000   0.0000000
 NMagM=    2.7928460   0.0000000   2.7928460   2.7928460   0.0000000   2.7928460   2.7928460   0.0000000   2.7928460   2.7928460
 AtZNuc=   1.0000000   8.0000000   1.0000000   1.0000000   8.0000000   1.0000000   1.0000000   8.0000000   1.0000000   1.0000000

  Atom       371         372         373         374         375         376         377         378         379         380
 IAtWgt=          16           1           1          16           1           1          16           1           1          16
 AtmWgt=  15.9949146   1.0078250   1.0078250  15.9949146   1.0078250   1.0078250  15.9949146   1.0078250   1.0078250  15.9949146
 NucSpn=           0           1           1           0           1           1           0           1           1           0
 AtZEff=   0.0000000   0.0000000   0.0000000   0.0000000   0.0000000   0.0000000   0.0000000   0.0000000   0.0000000   0.0000000
 NQMom=    0.0000000   0.0000000   0.0000000   0.0000000   0.0000000   0.0000000   0.0000000   0.0000000   0.0000000   0.0000000
 NMagM=    0.0000000   2.7928460   2.7928460   0.0000000   2.7928460   2.7928460   0.0000000   2.7928460   2.7928460   0.0000000
 AtZNuc=   8.0000000   1.0000000   1.0000000   8.0000000   1.0000000   1.0000000   8.0000000   1.0000000   1.0000000   8.0000000

  Atom       381         382         383         384         385
 IAtWgt=           1           1          16           1           1
 AtmWgt=   1.0078250   1.0078250  15.9949146   1.0078250   1.0078250
 NucSpn=           1           1           0           1           1
 AtZEff=   0.0000000   0.0000000   0.0000000   0.0000000   0.0000000
 NQMom=    0.0000000   0.0000000   0.0000000   0.0000000   0.0000000
 NMagM=    2.7928460   2.7928460   0.0000000   2.7928460   2.7928460
 AtZNuc=   1.0000000   1.0000000   8.0000000   1.0000000   1.0000000
 Leave Link  101 at Sun May  6 10:56:44 2018, MaxMem= 14763950080 cpu:        33.8
 (Enter /cm/shared/gaussian/g09.e01/intel64-sandybridge/g09/l103.exe)

 GradGradGradGradGradGradGradGradGradGradGradGradGradGradGradGradGradGrad
 Berny optimization.
 Initialization pass.
 Trust Radius=3.00D-01 FncErr=1.00D-07 GrdErr=1.00D-07
 Number of steps in this run=      2 maximum allowed number of steps=      2.
 GradGradGradGradGradGradGradGradGradGradGradGradGradGradGradGradGradGrad

 Leave Link  103 at Sun May  6 10:56:44 2018, MaxMem= 14763950080 cpu:         7.0
 (Enter /cm/shared/gaussian/g09.e01/intel64-sandybridge/g09/l202.exe)
 Symmetry turned off by external request.
 Stoichiometry    BrH256O128(1-)
 Framework group  C1[X(BrH256O128)]
 Deg. of freedom  1149
 Full point group                 C1      NOp   1
                          Input orientation:                          
 ---------------------------------------------------------------------
 Center     Atomic      Atomic             Coordinates (Angstroms)
 Number     Number       Type             X           Y           Z
 ---------------------------------------------------------------------
      1         35           0       20.000000   20.000000   20.000000
      2          8           0       18.710000   22.390000   21.650000
      3          1           0       17.850000   21.970000   21.660000
      4          1           0       19.260000   21.800000   21.140000
      5          8           0       17.050000   21.030000   19.140000
      6          1           0       16.810000   20.920000   18.230000
      7          1           0       17.950000   20.700000   19.200000
      8          8           0       20.070000   17.960000   17.560000
      9          1           0       19.940000   17.060000   17.860000
     10          1           0       19.710000   18.500000   18.260000
     11          8           0       19.570000   17.900000   22.530000
     12          1           0       18.880000   18.530000   22.760000
     13          1           0       20.060000   18.320000   21.830000
     14          8           0       21.500000   20.710000   16.840000
     15          1           0       20.800000   20.670000   16.190000
     16          1           0       21.050000   20.590000   17.680000
     17          8           0       16.790000   19.030000   20.790000
     18          1           0       16.480000   19.700000   20.180000
     19          1           0       17.610000   18.720000   20.410000
     20          8           0       22.480000   22.400000   19.600000
     21          1           0       23.150000   22.180000   20.240000
     22          1           0       22.150000   21.560000   19.290000
     23          8           0       22.450000   17.940000   18.860000
     24          1           0       21.780000   17.880000   18.180000
     25          1           0       21.960000   17.940000   19.680000
     26          8           0       24.340000   19.940000   19.740000
     27          1           0       23.620000   19.440000   19.360000
     28          1           0       24.880000   20.190000   18.990000
     29          8           0       22.540000   18.240000   23.180000
     30          1           0       21.740000   17.870000   22.820000
     31          1           0       22.950000   17.520000   23.660000
     32          8           0       19.020000   24.680000   19.500000
     33          1           0       19.220000   23.990000   20.130000
     34          1           0       18.310000   25.180000   19.900000
     35          8           0       20.180000   22.910000   23.950000
     36          1           0       19.770000   22.720000   23.100000
     37          1           0       19.470000   22.810000   24.590000
     38          8           0       15.920000   22.330000   21.230000
     39          1           0       16.260000   22.110000   20.360000
     40          1           0       15.480000   23.170000   21.110000
     41          8           0       17.660000   21.890000   16.480000
     42          1           0       18.030000   22.710000   16.840000
     43          1           0       18.360000   21.540000   15.940000
     44          8           0       19.690000   15.420000   18.620000
     45          1           0       19.130000   15.480000   19.390000
     46          1           0       20.110000   14.560000   18.700000
     47          8           0       21.920000   24.940000   19.200000
     48          1           0       22.220000   24.040000   19.360000
     49          1           0       21.010000   24.950000   19.500000
     50          8           0       19.870000   19.840000   24.960000
     51          1           0       19.960000   18.970000   24.580000
     52          1           0       20.620000   20.330000   24.630000
     53          8           0       21.460000   17.650000   15.130000
     54          1           0       20.970000   17.890000   15.920000
     55          1           0       21.900000   18.450000   14.860000
     56          8           0       16.150000   18.290000   17.270000
     57          1           0       16.910000   17.750000   17.060000
     58          1           0       16.260000   19.080000   16.730000
     59          8           0       20.240000   15.310000   23.130000
     60          1           0       19.910000   16.210000   23.060000
     61          1           0       20.410000   15.180000   24.060000
     62          8           0       24.190000   20.510000   16.320000
     63          1           0       23.320000   20.860000   16.480000
     64          1           0       24.750000   20.960000   16.950000
     65          8           0       22.660000   20.590000   24.720000
     66          1           0       22.990000   21.240000   24.110000
     67          1           0       22.680000   19.770000   24.230000
     68          8           0       19.670000   20.800000   14.830000
     69          1           0       20.400000   21.010000   14.250000
     70          1           0       19.070000   20.290000   14.290000
     71          8           0       14.560000   20.350000   22.620000
     72          1           0       15.260000   20.760000   22.110000
     73          1           0       14.400000   20.960000   23.340000
     74          8           0       22.480000   15.500000   21.480000
     75          1           0       22.880000   14.710000   21.120000
     76          1           0       21.560000   15.250000   21.610000
     77          8           0       25.110000   16.950000   18.350000
     78          1           0       24.220000   17.260000   18.490000
     79          1           0       25.550000   17.100000   19.180000
     80          8           0       24.000000   22.160000   22.740000
     81          1           0       24.360000   22.790000   22.120000
     82          1           0       24.400000   22.390000   23.580000
     83          8           0       25.950000   18.440000   21.400000
     84          1           0       25.820000   17.720000   22.020000
     85          1           0       25.070000   18.750000   21.200000
     86          8           0       14.700000   17.430000   19.490000
     87          1           0       15.080000   17.890000   20.240000
     88          1           0       15.210000   17.740000   18.740000
     89          8           0       14.890000   17.690000   22.720000
     90          1           0       15.460000   17.950000   22.000000
     91          1           0       14.440000   18.500000   22.960000
     92          8           0       16.520000   23.310000   23.910000
     93          1           0       17.250000   23.320000   23.290000
     94          1           0       15.920000   22.650000   23.570000
     95          8           0       21.730000   25.130000   16.620000
     96          1           0       22.070000   24.360000   16.170000
     97          1           0       21.710000   24.880000   17.550000
     98          8           0       18.730000   14.100000   20.860000
     99          1           0       18.080000   14.630000   21.320000
    100          1           0       19.330000   13.810000   21.550000
    101          8           0       25.760000   22.810000   20.770000
    102          1           0       26.390000   22.180000   21.130000
    103          1           0       25.460000   22.420000   19.950000
    104          8           0       16.090000   24.180000   18.150000
    105          1           0       16.880000   24.710000   18.020000
    106          1           0       15.700000   24.120000   17.280000
    107          8           0       18.650000   21.800000   26.480000
    108          1           0       18.630000   21.270000   27.280000
    109          1           0       19.120000   21.260000   25.840000
    110          8           0       17.640000   16.210000   15.930000
    111          1           0       18.520000   15.990000   15.610000
    112          1           0       17.360000   15.450000   16.430000
    113          8           0       16.830000   18.330000   14.510000
    114          1           0       16.810000   18.050000   13.600000
    115          1           0       17.130000   17.560000   14.990000
    116          8           0       17.230000   25.700000   21.410000
    117          1           0       16.810000   26.340000   20.840000
    118          1           0       16.550000   25.050000   21.590000
    119          8           0       24.790000   16.130000   22.800000
    120          1           0       25.020000   15.510000   23.500000
    121          1           0       24.050000   15.720000   22.350000
    122          8           0       25.830000   21.720000   18.140000
    123          1           0       25.730000   22.650000   17.980000
    124          1           0       26.620000   21.470000   17.650000
    125          8           0       20.570000   16.610000   25.590000
    126          1           0       20.980000   17.110000   26.290000
    127          1           0       19.670000   16.910000   25.560000
    128          8           0       25.620000   19.080000   24.390000
    129          1           0       25.590000   18.800000   25.310000
    130          1           0       24.870000   18.640000   23.990000
    131          8           0       14.550000   20.770000   16.640000
    132          1           0       14.170000   20.800000   15.760000
    133          1           0       13.790000   20.760000   17.220000
    134          8           0       26.590000   21.250000   23.170000
    135          1           0       26.430000   20.590000   23.840000
    136          1           0       25.760000   21.310000   22.700000
    137          8           0       16.110000   22.810000   14.320000
    138          1           0       16.620000   22.300000   14.950000
    139          1           0       16.570000   22.690000   13.490000
    140          8           0       21.650000   26.840000   21.590000
    141          1           0       21.050000   26.190000   21.960000
    142          1           0       21.700000   27.530000   22.260000
    143          8           0       12.790000   20.990000   20.470000
    144          1           0       13.070000   21.900000   20.390000
    145          1           0       13.500000   20.550000   20.930000
    146          8           0       19.830000   18.200000   12.900000
    147          1           0       20.510000   18.860000   12.990000
    148          1           0       19.750000   17.810000   13.770000
    149          8           0       20.600000   25.850000   24.740000
    150          1           0       20.790000   25.020000   24.290000
    151          1           0       19.840000   26.210000   24.280000
    152          8           0       22.990000   18.970000   26.780000
    153          1           0       22.290000   19.180000   27.400000
    154          1           0       22.860000   19.590000   26.060000
    155          8           0       19.170000   23.900000   13.730000
    156          1           0       19.900000   23.680000   14.320000
    157          1           0       19.230000   24.850000   13.630000
    158          8           0       24.840000   24.390000   18.080000
    159          1           0       25.710000   24.610000   18.430000
    160          1           0       24.290000   25.130000   18.340000
    161          8           0       22.010000   20.120000   13.330000
    162          1           0       22.870000   20.030000   13.750000
    163          1           0       22.090000   20.910000   12.800000
    164          8           0       14.280000   23.470000   16.280000
    165          1           0       14.480000   22.640000   16.710000
    166          1           0       14.590000   23.350000   15.380000
    167          8           0       24.670000   19.090000   13.970000
    168          1           0       25.240000   18.330000   13.860000
    169          1           0       24.680000   19.270000   14.910000
    170          8           0       23.840000   15.830000   14.550000
    171          1           0       23.470000   16.060000   15.400000
    172          1           0       23.500000   14.960000   14.360000
    173          8           0       22.360000   23.370000   14.330000
    174          1           0       22.980000   24.070000   14.120000
    175          1           0       22.800000   22.560000   14.090000
    176          8           0       13.830000   17.180000   16.060000
    177          1           0       13.500000   17.040000   16.950000
    178          1           0       14.540000   17.820000   16.170000
    179          8           0       19.770000   12.620000   17.490000
    180          1           0       19.580000   13.530000   17.290000
    181          1           0       19.000000   12.130000   17.190000
    182          8           0       16.490000   14.040000   17.500000
    183          1           0       16.140000   13.140000   17.530000
    184          1           0       16.010000   14.500000   18.190000
    185          8           0       19.930000   27.520000   18.760000
    186          1           0       20.280000   27.040000   19.510000
    187          1           0       19.880000   26.870000   18.060000
    188          8           0       19.040000   26.890000   22.810000
    189          1           0       18.620000   27.700000   23.120000
    190          1           0       18.450000   26.560000   22.130000
    191          8           0       24.430000   25.780000   22.980000
    192          1           0       24.660000   26.560000   22.480000
    193          1           0       23.550000   25.550000   22.690000
    194          8           0       17.090000   25.090000   15.700000
    195          1           0       17.170000   25.810000   15.070000
    196          1           0       17.020000   24.300000   15.150000
    197          8           0       24.030000   27.010000   19.570000
    198          1           0       23.780000   27.460000   20.370000
    199          1           0       23.350000   26.340000   19.450000
    200          8           0       15.310000   15.240000   24.130000
    201          1           0       15.730000   14.770000   23.410000
    202          1           0       15.280000   16.150000   23.850000
    203          8           0       13.880000   14.960000   19.110000
    204          1           0       14.050000   15.890000   19.290000
    205          1           0       14.020000   14.520000   19.950000
    206          8           0       14.610000   24.670000   21.520000
    207          1           0       14.440000   25.160000   20.720000
[...]
   X336      52.98792  -0.01114   0.00000   0.00269   0.00336  52.99128
   Y336      41.10154  -0.00444   0.00000  -0.00767  -0.00746  41.09408
   Z336      42.99127   0.00083   0.00000  -0.00056  -0.00149  42.98978
   X337      54.93434  -0.00096   0.00000  -0.00031   0.00022  54.93456
   Y337      42.42435   0.00478   0.00000   0.00816   0.00848  42.43283
   Z337      41.34721  -0.00132   0.00000  -0.00182  -0.00284  41.34437
   X338      27.94905   0.00802   0.00000   0.00137   0.00137  27.95042
   Y338      27.21206  -0.00393   0.00000  -0.00147  -0.00139  27.21067
   Z338      27.72228  -0.01339   0.00000  -0.01419  -0.01390  27.70838
   X339      27.72228  -0.00345   0.00000  -0.00245  -0.00246  27.71983
   Y339      28.89391   0.00570   0.00000   0.00131   0.00136  28.89528
   Z339      28.36479   0.00678   0.00000   0.00681   0.00718  28.37196
   X340      26.53175  -0.00682   0.00000  -0.00289  -0.00283  26.52892
   Y340      26.28609   0.00107   0.00000   0.00494   0.00497  26.29106
   Z340      28.36479   0.01192   0.00000   0.01576   0.01612  28.38091
   X341      34.78986   0.00549   0.00000   0.00272   0.00424  34.79410
   Y341      38.24806   0.00400   0.00000   0.00077   0.00017  38.24822
   Z341      54.65088  -0.00911   0.00000  -0.00334  -0.00316  54.64772
   X342      33.54264  -0.00671   0.00000  -0.00970  -0.00822  33.53442
   Y342      37.24650   0.00149   0.00000   0.00560   0.00499  37.25149
   Z342      53.80050  -0.00068   0.00000   0.00009   0.00033  53.80083
   X343      34.69537  -0.00423   0.00000  -0.00721  -0.00556  34.68981
   Y343      37.73783  -0.00223   0.00000   0.00122   0.00056  37.73839
   Z343      56.37053   0.01507   0.00000   0.01197   0.01215  56.38268
   X344      28.11912  -0.00044   0.00000   0.00821   0.00966  28.12878
   Y344      30.14113   0.01880   0.00000   0.02255   0.02191  30.16304
   Z344      50.60687   0.00857   0.00000   0.00216   0.00254  50.60941
   X345      29.25296   0.00167   0.00000  -0.00508  -0.00355  29.24941
   Y345      29.10178  -0.00864   0.00000  -0.00824  -0.00888  29.09290
   Z345      51.55173   0.00460   0.00000   0.00401   0.00428  51.55601
   X346      28.45928   0.00033   0.00000  -0.00470  -0.00336  28.45592
   Y346      29.72539  -0.01349   0.00000  -0.01831  -0.01888  29.70651
   Z346      48.86832  -0.01448   0.00000  -0.00952  -0.00918  48.85913
   X347      35.26229  -0.01935   0.00000  -0.00729  -0.00798  35.25431
   Y347      50.07774  -0.01481   0.00000  -0.01280  -0.01248  50.06526
   Z347      25.88925  -0.00393   0.00000  -0.00180  -0.00127  25.88798
   X348      36.01818   0.00065   0.00000  -0.00585  -0.00666  36.01152
   Y348      50.58797   0.00728   0.00000   0.00772   0.00811  50.59608
   Z348      24.33967  -0.01265   0.00000  -0.01101  -0.01051  24.32916
   X349      36.41502   0.01794   0.00000   0.01393   0.01331  36.42834
   Y349      50.64466   0.01270   0.00000   0.01314   0.01345  50.65811
   Z349      27.17426   0.01398   0.00000   0.00667   0.00715  27.18141
   X350      28.83722  -0.02164   0.00000  -0.01451  -0.01487  28.82235
   Y350      51.53283   0.00490   0.00000   0.00531   0.00531  51.53814
   Z350      31.33166  -0.00257   0.00000  -0.00465  -0.00365  31.32801
   X351      30.55687   0.01459   0.00000   0.00516   0.00482  30.56169
   Y351      51.75960  -0.00083   0.00000  -0.00232  -0.00230  51.75730
   Z351      31.78519   0.00617   0.00000   0.00615   0.00705  31.79225
   X352      28.83722   0.00358   0.00000   0.00436   0.00397  28.84119
   Y352      50.03995  -0.00595   0.00000  -0.00636  -0.00633  50.03361
   Z352      30.29231   0.00083   0.00000   0.00337   0.00433  30.29664
   X353      32.48439  -0.01143   0.00000  -0.00724  -0.00809  32.47630
   Y353      47.01639   0.01297   0.00000   0.00878   0.00914  47.02553
   Z353      22.46884  -0.01372   0.00000  -0.01051  -0.00989  22.45895
   X354      33.14580   0.00654   0.00000   0.00321   0.00249  33.14828
   Y354      46.31719  -0.00525   0.00000   0.00014   0.00047  46.31766
   Z354      23.98062   0.01326   0.00000   0.00582   0.00638  23.98700
   X355      33.14580   0.00197   0.00000   0.00141   0.00050  33.14630
   Y355      45.97704  -0.00495   0.00000  -0.00519  -0.00477  45.97227
   Z355      21.14604  -0.00234   0.00000  -0.00203  -0.00148  21.14455
   X356      49.98326   0.00086   0.00000  -0.00399  -0.00420  49.97906
   Y356      31.53953   0.01350   0.00000   0.01701   0.01768  31.55721
   Z356      26.32389  -0.03361   0.00000  -0.02396  -0.02499  26.29889
   X357      50.17223   0.00576   0.00000   0.00937   0.00929  50.18151
   Y357      31.52063  -0.00381   0.00000  -0.00536  -0.00474  31.51589
   Z357      28.11912   0.02139   0.00000   0.00649   0.00544  28.12456
   X358      48.41478  -0.00742   0.00000  -0.00624  -0.00644  48.40834
   Y358      30.68915  -0.00472   0.00000  -0.00488  -0.00424  30.68491
   Z358      26.02153   0.00325   0.00000   0.00472   0.00376  26.02529
   X359      47.82897   0.01164   0.00000   0.01041   0.01166  47.84063
   Y359      27.04198   0.00030   0.00000  -0.00925  -0.00927  27.03271
   Z359      46.48726   0.00311   0.00000   0.00505   0.00401  46.49128
   X360      47.62110  -0.00476   0.00000  -0.00885  -0.00747  47.61363
   Y360      26.66404   0.00106   0.00000   0.00267   0.00258  26.66662
   Z360      48.24471   0.00742   0.00000   0.00965   0.00862  48.25333
   X361      46.80852  -0.00789   0.00000  -0.00713  -0.00590  46.80261
   Y361      25.81366  -0.00988   0.00000  -0.00834  -0.00836  25.80530
   Z361      45.65578  -0.00594   0.00000  -0.00355  -0.00455  45.65123
   X362      50.98481   0.00727   0.00000  -0.00110  -0.00041  50.98440
   Y362      47.90456   0.00978   0.00000   0.01117   0.01125  47.91581
   Z362      45.80696   0.01387   0.00000   0.02569   0.02510  45.83206
   X363      49.22737  -0.01413   0.00000  -0.01055  -0.00986  49.21750
   Y363      47.54551  -0.00202   0.00000  -0.00101  -0.00097  47.54454
   Z363      45.59909  -0.00433   0.00000  -0.00536  -0.00584  45.59325
   X364      51.64622   0.00490   0.00000   0.00611   0.00689  51.65311
   Y364      46.46837  -0.00504   0.00000  -0.00561  -0.00555  46.46282
   Z364      46.71403   0.00281   0.00000   0.00316   0.00248  46.71651
   X365      34.92214  -0.01312   0.00000  -0.00699  -0.00773  34.91441
   Y365      36.54730   0.00632   0.00000   0.00078   0.00128  36.54858
   Z365      20.14448  -0.01220   0.00000  -0.01227  -0.01215  20.13233
   X366      36.18826   0.00671   0.00000  -0.00185  -0.00251  36.18575
   Y366      35.62134  -0.00850   0.00000  -0.00571  -0.00521  35.61613
   Z366      21.03265   0.01274   0.00000   0.01304   0.01306  21.04571
   X367      35.81031   0.00353   0.00000   0.00601   0.00518  35.81549
   Y367      37.92680  -0.00060   0.00000  -0.00153  -0.00098  37.92582
   Z367      19.36969  -0.00135   0.00000  -0.00251  -0.00240  19.36729
   X368      51.96747  -0.00504   0.00000  -0.00852  -0.00754  51.95993
   Y368      43.23693   0.01196   0.00000   0.00592   0.00593  43.24287
   Z368      48.49037   0.00959   0.00000   0.00443   0.00364  48.49401
   X369      51.53283  -0.00230   0.00000  -0.00100  -0.00010  51.53273
   Y369      42.34876  -0.00898   0.00000  -0.00557  -0.00552  42.34324
   Z369      46.97859  -0.01714   0.00000  -0.01397  -0.01477  46.96383
   X370      53.34697   0.00483   0.00000   0.00217   0.00323  53.35020
   Y370      42.29207  -0.00130   0.00000   0.00251   0.00253  42.29460
   Z370      49.18957   0.00002   0.00000  -0.00128  -0.00220  49.18737
   X371      30.76474   0.01150   0.00000   0.00764   0.00717  30.77191
   Y371      32.73006  -0.00956   0.00000  -0.00328  -0.00297  32.72709
   Z371      22.86569   0.00209   0.00000   0.00137   0.00165  22.86734
   X372      30.93482   0.00103   0.00000   0.00170   0.00112  30.93594
   Y372      34.12845   0.01299   0.00000   0.01174   0.01209  34.14054
   Z372      21.73185  -0.00635   0.00000  -0.00308  -0.00276  21.72909
   X373      29.15847  -0.01596   0.00000  -0.01392  -0.01434  29.14414
   Y373      33.01352  -0.00241   0.00000  -0.00759  -0.00735  33.00616
   Z373      23.67827   0.00203   0.00000  -0.00317  -0.00277  23.67549
   X374      23.14915  -0.01371   0.00000  -0.01768  -0.01719  23.13196
   Y374      45.84476  -0.01639   0.00000  -0.01568  -0.01617  45.82859
   Z374      42.08420  -0.00080   0.00000   0.00450   0.00570  42.08990
   X375      22.03421  -0.00274   0.00000  -0.00314  -0.00262  22.03159
   Y375      46.97859   0.00885   0.00000   0.00974   0.00920  46.98779
   Z375      42.93458   0.00577   0.00000   0.00496   0.00627  42.94085
   X376      22.03421   0.00397   0.00000  -0.00264  -0.00217  22.03204
   Y376      44.61643   0.00180   0.00000  -0.00268  -0.00317  44.61327
   Z376      41.30941  -0.00279   0.00000  -0.00933  -0.00809  41.30132
   X377      24.20739  -0.00797   0.00000  -0.00639  -0.00606  24.20133
   Y377      26.11602  -0.02218   0.00000  -0.01666  -0.01681  26.09920
   Z377      32.27652  -0.03234   0.00000  -0.02595  -0.02545  32.25108
   X378      24.88769   0.00878   0.00000   0.00402   0.00442  24.89211
   Y378      26.89080   0.01311   0.00000   0.00522   0.00504  26.89584
   Z378      33.75051   0.01837   0.00000   0.00202   0.00251  33.75302
   X379      22.69561  -0.00440   0.00000  -0.00492  -0.00464  22.69097
   Y379      27.04198   0.00474   0.00000   0.00427   0.00409  27.04608
   Z379      31.91747   0.00134   0.00000   0.00009   0.00073  31.91821
   X380      40.09999   0.02109   0.00000   0.01245   0.01391  40.11390
   Y380      40.70470  -0.00176   0.00000  -0.00407  -0.00455  40.70015
   Z380      54.78316  -0.00030   0.00000   0.00337   0.00328  54.78644
   X381      40.40234  -0.00216   0.00000  -0.00329  -0.00183  40.40052
   Y381      42.38656   0.00130   0.00000   0.00262   0.00213  42.38868
   Z381      55.42567  -0.00396   0.00000  -0.00721  -0.00727  55.41840
   X382      38.34254  -0.01766   0.00000  -0.01131  -0.00982  38.33272
   Y382      40.44014   0.00040   0.00000   0.00279   0.00226  40.44240
   Z382      55.02882  -0.00275   0.00000  -0.00832  -0.00830  55.02053
   X383      25.85145   0.00439   0.00000  -0.00180  -0.00212  25.84933
   Y383      32.61667   0.00860   0.00000   0.00757   0.00769  32.62436
   Z383      24.94438  -0.02056   0.00000  -0.01401  -0.01341  24.93098
   X384      25.32233  -0.00153   0.00000   0.00544   0.00523  25.32756
   Y384      32.57888  -0.00211   0.00000  -0.00170  -0.00164  32.57723
   Z384      26.66404   0.02185   0.00000   0.01422   0.01486  26.67889
   X385      25.36012   0.00090   0.00000   0.00390   0.00357  25.36370
   Y385      31.01041  -0.00730   0.00000  -0.00764  -0.00751  31.00289
   Z385      24.26408   0.00148   0.00000   0.00285   0.00344  24.26752
         Item               Value     Threshold  Converged?
 Maximum Force            0.038264     0.000450     NO 
 RMS     Force            0.010575     0.000300     NO 
 Maximum Displacement     0.035049     0.001800     NO 
 RMS     Displacement     0.008809     0.001200     NO 
 Predicted change in Energy=-7.387939D-02
 GradGradGradGradGradGradGradGradGradGradGradGradGradGradGradGradGradGrad

 Leave Link  103 at Sun May  6 13:19:24 2018, MaxMem= 14763950080 cpu:      2543.5
 (Enter /cm/shared/gaussian/g09.e01/intel64-sandybridge/g09/l9999.exe)
 1\1\GINC-POPLE01\Force\RPBE1PBE\CC-pVDZ\Br1H256O128(1-)\M.PELUSO\06-Ma
 y-2018\0\\#p PBE1PBE/cc-pvDZ force Counterpoise=2 noSymm\\forces on ch
 loride comput - NWATER: 128\\-1,1\Br,20.,20.,20.\O,18.71,22.39,21.65\H
 ,17.85,21.97,21.66\H,19.26,21.8,21.14\O,17.05,21.03,19.14\H,16.81,20.9
 2,18.23\H,17.95,20.7,19.2\O,20.07,17.96,17.56\H,19.94,17.06,17.86\H,19
 .71,18.5,18.26\O,19.57,17.9,22.53\H,18.88,18.53,22.76\H,20.06,18.32,21
 .83\O,21.5,20.71,16.84\H,20.8,20.67,16.19\H,21.05,20.59,17.68\O,16.79,
 19.03,20.79\H,16.48,19.7,20.18\H,17.61,18.72,20.41\O,22.48,22.4,19.6\H
 ,23.15,22.18,20.24\H,22.15,21.56,19.29\O,22.45,17.94,18.86\H,21.78,17.
 88,18.18\H,21.96,17.94,19.68\O,24.34,19.94,19.74\H,23.62,19.44,19.36\H
 ,24.88,20.19,18.99\O,22.54,18.24,23.18\H,21.74,17.87,22.82\H,22.95,17.
 52,23.66\O,19.02,24.68,19.5\H,19.22,23.99,20.13\H,18.31,25.18,19.9\O,2
 0.18,22.91,23.95\H,19.77,22.72,23.1\H,19.47,22.81,24.59\O,15.92,22.33,
 21.23\H,16.26,22.11,20.36\H,15.48,23.17,21.11\O,17.66,21.89,16.48\H,18
 .03,22.71,16.84\H,18.36,21.54,15.94\O,19.69,15.42,18.62\H,19.13,15.48,
 19.39\H,20.11,14.56,18.7\O,21.92,24.94,19.2\H,22.22,24.04,19.36\H,21.0
 1,24.95,19.5\O,19.87,19.84,24.96\H,19.96,18.97,24.58\H,20.62,20.33,24.
 63\O,21.46,17.65,15.13\H,20.97,17.89,15.92\H,21.9,18.45,14.86\O,16.15,
 18.29,17.27\H,16.91,17.75,17.06\H,16.26,19.08,16.73\O,20.24,15.31,23.1
 3\H,19.91,16.21,23.06\H,20.41,15.18,24.06\O,24.19,20.51,16.32\H,23.32,
 20.86,16.48\H,24.75,20.96,16.95\O,22.66,20.59,24.72\H,22.99,21.24,24.1
 1\H,22.68,19.77,24.23\O,19.67,20.8,14.83\H,20.4,21.01,14.25\H,19.07,20
 .29,14.29\O,14.56,20.35,22.62\H,15.26,20.76,22.11\H,14.4,20.96,23.34\O
 ,22.48,15.5,21.48\H,22.88,14.71,21.12\H,21.56,15.25,21.61\O,25.11,16.9
 5,18.35\H,24.22,17.26,18.49\H,25.55,17.1,19.18\O,24.,22.16,22.74\H,24.
 36,22.79,22.12\H,24.4,22.39,23.58\O,25.95,18.44,21.4\H,25.82,17.72,22.
 02\H,25.07,18.75,21.2\O,14.7,17.43,19.49\H,15.08,17.89,20.24\H,15.21,1
 7.74,18.74\O,14.89,17.69,22.72\H,15.46,17.95,22.\H,14.44,18.5,22.96\O,
 16.52,23.31,23.91\H,17.25,23.32,23.29\H,15.92,22.65,23.57\O,21.73,25.1
 3,16.62\H,22.07,24.36,16.17\H,21.71,24.88,17.55\O,18.73,14.1,20.86\H,1
 8.08,14.63,21.32\H,19.33,13.81,21.55\O,25.76,22.81,20.77\H,26.39,22.18
 ,21.13\H,25.46,22.42,19.95\O,16.09,24.18,18.15\H,16.88,24.71,18.02\H,1
 5.7,24.12,17.28\O,18.65,21.8,26.48\H,18.63,21.27,27.28\H,19.12,21.26,2
 5.84\O,17.64,16.21,15.93\H,18.52,15.99,15.61\H,17.36,15.45,16.43\O,16.
 83,18.33,14.51\H,16.81,18.05,13.6\H,17.13,17.56,14.99\O,17.23,25.7,21.
 41\H,16.81,26.34,20.84\H,16.55,25.05,21.59\O,24.79,16.13,22.8\H,25.02,
 15.51,23.5\H,24.05,15.72,22.35\O,25.83,21.72,18.14\H,25.73,22.65,17.98
 \H,26.62,21.47,17.65\O,20.57,16.61,25.59\H,20.98,17.11,26.29\H,19.67,1
 6.91,25.56\O,25.62,19.08,24.39\H,25.59,18.8,25.31\H,24.87,18.64,23.99\
 O,14.55,20.77,16.64\H,14.17,20.8,15.76\H,13.79,20.76,17.22\O,26.59,21.
 25,23.17\H,26.43,20.59,23.84\H,25.76,21.31,22.7\O,16.11,22.81,14.32\H,
 16.62,22.3,14.95\H,16.57,22.69,13.49\O,21.65,26.84,21.59\H,21.05,26.19
 ,21.96\H,21.7,27.53,22.26\O,12.79,20.99,20.47\H,13.07,21.9,20.39\H,13.
 5,20.55,20.93\O,19.83,18.2,12.9\H,20.51,18.86,12.99\H,19.75,17.81,13.7
 7\O,20.6,25.85,24.74\H,20.79,25.02,24.29\H,19.84,26.21,24.28\O,22.99,1
 8.97,26.78\H,22.29,19.18,27.4\H,22.86,19.59,26.06\O,19.17,23.9,13.73\H
 ,19.9,23.68,14.32\H,19.23,24.85,13.63\O,24.84,24.39,18.08\H,25.71,24.6
 1,18.43\H,24.29,25.13,18.34\O,22.01,20.12,13.33\H,22.87,20.03,13.75\H,
 22.09,20.91,12.8\O,14.28,23.47,16.28\H,14.48,22.64,16.71\H,14.59,23.35
 ,15.38\O,24.67,19.09,13.97\H,25.24,18.33,13.86\H,24.68,19.27,14.91\O,2
 3.84,15.83,14.55\H,23.47,16.06,15.4\H,23.5,14.96,14.36\O,22.36,23.37,1
 4.33\H,22.98,24.07,14.12\H,22.8,22.56,14.09\O,13.83,17.18,16.06\H,13.5
 ,17.04,16.95\H,14.54,17.82,16.17\O,19.77,12.62,17.49\H,19.58,13.53,17.
 29\H,19.,12.13,17.19\O,16.49,14.04,17.5\H,16.14,13.14,17.53\H,16.01,14
 .5,18.19\O,19.93,27.52,18.76\H,20.28,27.04,19.51\H,19.88,26.87,18.06\O
 ,19.04,26.89,22.81\H,18.62,27.7,23.12\H,18.45,26.56,22.13\O,24.43,25.7
 8,22.98\H,24.66,26.56,22.48\H,23.55,25.55,22.69\O,17.09,25.09,15.7\H,1
 7.17,25.81,15.07\H,17.02,24.3,15.15\O,24.03,27.01,19.57\H,23.78,27.46,
 20.37\H,23.35,26.34,19.45\O,15.31,15.24,24.13\H,15.73,14.77,23.41\H,15
 .28,16.15,23.85\O,13.88,14.96,19.11\H,14.05,15.89,19.29\H,14.02,14.52,
 19.95\O,14.61,24.67,21.52\H,14.44,25.16,20.72\H,13.74,24.42,21.84\O,25
 .52,14.11,18.21\H,25.17,14.99,18.38\H,25.17,13.88,17.35\O,22.23,23.71,
 26.66\H,21.73,22.89,26.61\H,21.56,24.39,26.62\O,28.14,19.2,19.7\H,28.9
 ,19.16,20.28\H,27.39,19.04,20.27\O,17.77,17.21,26.55\H,17.34,17.89,27.
 07\H,17.19,16.45,26.63\O,24.63,22.86,25.15\H,23.85,23.03,25.68\H,25.33
 ,23.33,25.62\O,11.88,17.61,19.1\H,12.82,17.71,19.2\H,11.55,18.51,18.97
 \O,14.1,25.9,19.01\H,14.82,25.37,18.67\H,14.14,26.71,18.5\O,26.92,16.5
 6,16.48\H,27.68,16.31,17.\H,26.27,16.83,17.13\O,27.31,15.58,20.75\H,27
 .65,16.09,21.49\H,26.48,16.,20.53\O,14.3,21.8,25.03\H,14.26,20.88,25.2
 8\H,13.64,22.23,25.58\O,17.88,21.84,12.2\H,18.26,22.5,12.78\H,18.14,22
 .11,11.33\O,14.88,25.7,24.29\H,15.43,24.95,24.04\H,15.28,26.03,25.1\O,
 23.6,27.19,16.46\H,23.86,27.59,17.28\H,22.9,26.58,16.69\O,16.13,22.43,
 27.25\H,17.05,22.36,26.97\H,15.63,22.41,26.43\O,12.47,16.4,23.03\H,11.
 97,17.13,22.67\H,13.38,16.62,22.83\O,20.6,27.37,15.24\H,21.3,27.7,14.6
 8\H,20.99,26.64,15.72\O,22.06,14.39,26.46\H,21.45,14.76,25.82\H,22.71,
 15.09,26.59\O,24.08,13.25,21.2\H,24.93,12.92,20.89\H,23.7,12.52,21.69\
 O,20.58,12.11,22.65\H,20.36,12.75,23.32\H,21.45,11.8,22.89\O,15.58,13.
 47,21.33\H,15.04,12.9,21.87\H,16.28,12.9,20.99\O,23.91,16.48,26.72\H,2
 3.7,17.41,26.63\H,24.86,16.45,26.8\O,15.84,20.18,12.27\H,16.58,20.77,1
 2.2\H,16.04,19.63,13.03\O,11.59,20.49,18.18\H,12.05,20.76,18.97\H,10.8
 5,21.09,18.12\O,20.36,18.47,27.93\H,20.49,18.79,28.83\H,19.45,18.17,27
 .91\O,17.7,13.26,23.96\H,17.04,13.45,24.62\H,17.85,12.32,24.03\O,26.12
 ,23.92,15.71\H,26.84,24.38,15.28\H,25.87,24.48,16.45\O,17.06,11.83,19.
 67\H,17.99,12.06,19.67\H,16.9,11.52,18.77\O,20.1,14.18,14.12\H,20.28,1
 4.84,13.46\H,20.95,13.98,14.51\O,27.39,21.32,16.01\H,27.66,21.06,15.13
 \H,26.83,22.08,15.88\O,11.44,19.03,23.28\H,12.28,19.29,22.91\H,11.13,1
 9.81,23.75\O,14.36,18.94,25.98\H,14.97,19.1,26.7\H,14.24,17.99,25.97\O
 ,22.96,16.72,12.08\H,22.57,15.87,11.9\H,23.2,16.69,13.01\O,12.32,23.27
 ,19.09\H,12.71,24.06,18.72\H,11.59,23.06,18.51\O,22.5,13.47,15.3\H,22.
 01,12.78,15.76\H,23.37,13.1,15.17\O,25.13,23.15,13.34\H,25.03,22.23,13
 .6\H,25.45,23.59,14.12\O,16.61,27.89,19.35\H,17.51,28.01,19.06\H,16.38
 ,28.7,19.8\O,19.89,10.87,19.59\H,19.78,11.56,20.25\H,20.32,11.31,18.86
 \O,28.56,18.62,23.64\H,27.65,18.79,23.4\H,28.51,18.01,24.38\O,27.21,25
 .59,21.69\H,27.26,25.92,22.58\H,26.27,25.52,21.51\O,19.41,24.54,28.2\H
 ,19.27,24.49,27.25\H,19.86,25.37,28.33\O,24.33,21.4,28.1\H,23.4,21.27,
 28.26\H,24.48,21.05,27.22\O,20.13,15.49,11.75\H,20.11,16.34,12.18\H,20
 .32,15.68,10.84\O,28.98,21.81,22.59\H,28.04,21.75,22.75\H,29.07,22.45,
 21.88\O,14.79,14.4,14.67\H,14.67,15.29,15.01\H,14.04,13.91,15.01\O,18.
 41,20.24,28.92\H,17.75,19.71,28.47\H,18.36,19.97,29.83\O,14.88,15.95,2
 6.78\H,15.48,15.4,27.28\H,15.06,15.73,25.86\O,18.66,26.5,13.7\H,19.06,
 26.77,12.88\H,19.27,26.8,14.38\O,15.26,27.27,16.58\H,16.17,27.39,16.82
 \H,15.26,26.48,16.03\O,17.19,24.88,11.89\H,17.54,24.51,12.69\H,17.54,2
 4.33,11.19\O,26.45,16.69,13.93\H,26.55,16.68,14.88\H,25.62,16.24,13.77
 \O,25.31,14.31,24.6\H,25.2,14.11,25.53\H,24.77,13.66,24.16\O,26.98,25.
 35,24.24\H,26.05,25.16,24.13\H,27.33,24.59,24.72\O,18.48,19.34,10.66\H
 ,19.15,18.85,11.13\H,18.95,20.07,10.25\O,27.5,22.88,25.66\H,27.27,22.4
 1,24.86\H,28.23,22.38,26.03\O,16.28,17.32,12.1\H,16.37,18.06,11.5\H,15
 .43,17.47,12.53\O,12.25,24.26,22.27\H,11.66,24.86,22.72\H,11.66,23.61,
 21.86\O,12.81,13.82,17.08\H,13.17,14.23,17.86\H,12.01,14.31,16.89\O,21
 .22,21.54,28.99\H,21.38,22.43,29.33\H,20.29,21.4,29.12\O,13.68,17.26,1
 3.2\H,13.4,17.24,14.11\H,13.42,16.41,12.84\\Version=ES64L-G09RevE.01\H
 F=-9773.3844656\RMSD=9.584e-10\RMSF=1.058e-02\Dipole=-2.7020052,0.5059
 869,6.9365851\Quadrupole=-440.0315575,-6.3123433,446.3439008,-1588.901
 4244,-1329.714145,-1244.1892197\PG=C01 [X(Br1H256O128)]\\@


 HIGGLEDY-PIGGLEDY
 NIC'LAUS COPERNICUS
 LOOKED AT THE UNIVERSE,
 SPOKE TO THE THRONG;
 GIVE UP YOUR PTOLOMY,
 RISE UP AND FOLLOW ME,
 HELIOCENTRICALLY
 PTOLEMY'S WRONG.
   -- NANCY L. STARK
 Job cpu time:       6 days  5 hours 33 minutes 56.1 seconds.
 File lengths (MBytes):  RWF=   7285 Int=      0 D2E=      0 Chk=   2411 Scr=      1
 Normal termination of Gaussian 09 at Sun May  6 13:20:11 2018.
