 Entering Gaussian System, Link 0=/cm/shared/gaussian/g09.e01/intel64-sandybridge/g09/g09
 Initial command:
 /cm/shared/gaussian/g09.e01/intel64-sandybridge/g09/l1.exe "/local/scratch/m.peluso/128_wat/Gau-30738.inp" -scrdir="/local/scratch/m.peluso/128_wat/"
 Entering Link 1 = /cm/shared/gaussian/g09.e01/intel64-sandybridge/g09/l1.exe PID=     30739.
  
 Copyright (c) 1988,1990,1992,1993,1995,1998,2003,2009,2015,
            Gaussian, Inc.  All Rights Reserved.
  
 This is part of the Gaussian(R) 09 program.  It is based on
 the Gaussian(R) 03 system (copyright 2003, Gaussian, Inc.),
 the Gaussian(R) 98 system (copyright 1998, Gaussian, Inc.),
 the Gaussian(R) 94 system (copyright 1995, Gaussian, Inc.),
 the Gaussian 92(TM) system (copyright 1992, Gaussian, Inc.),
 the Gaussian 90(TM) system (copyright 1990, Gaussian, Inc.),
 the Gaussian 88(TM) system (copyright 1988, Gaussian, Inc.),
 the Gaussian 86(TM) system (copyright 1986, Carnegie Mellon
 University), and the Gaussian 82(TM) system (copyright 1983,
 Carnegie Mellon University). Gaussian is a federally registered
 trademark of Gaussian, Inc.
  
 This software contains proprietary and confidential information,
 including trade secrets, belonging to Gaussian, Inc.
  
 This software is provided under written license and may be
 used, copied, transmitted, or stored only in accord with that
 written license.
  
 The following legend is applicable only to US Government
 contracts under FAR:
  
                    RESTRICTED RIGHTS LEGEND
  
 Use, reproduction and disclosure by the US Government is
 subject to restrictions as set forth in subparagraphs (a)
 and (c) of the Commercial Computer Software - Restricted
 Rights clause in FAR 52.227-19.
  
 Gaussian, Inc.
 340 Quinnipiac St., Bldg. 40, Wallingford CT 06492
  
  
 ---------------------------------------------------------------
 Warning -- This program may not be used in any manner that
 competes with the business of Gaussian, Inc. or will provide
 assistance to any competitor of Gaussian, Inc.  The licensee
 of this program is prohibited from giving any competitor of
 Gaussian, Inc. access to this program.  By using this program,
 the user acknowledges that Gaussian, Inc. is engaged in the
 business of creating and licensing software in the field of
 computational chemistry and represents and warrants to the
 licensee that it is not a competitor of Gaussian, Inc. and that
 it will not use this program in any manner prohibited above.
 ---------------------------------------------------------------
  

 Cite this work as:
 Gaussian 09, Revision E.01,
 M. J. Frisch, G. W. Trucks, H. B. Schlegel, G. E. Scuseria, 
 M. A. Robb, J. R. Cheeseman, G. Scalmani, V. Barone, B. Mennucci, 
 G. A. Petersson, H. Nakatsuji, M. Caricato, X. Li, H. P. Hratchian, 
 A. F. Izmaylov, J. Bloino, G. Zheng, J. L. Sonnenberg, M. Hada, 
 M. Ehara, K. Toyota, R. Fukuda, J. Hasegawa, M. Ishida, T. Nakajima, 
 Y. Honda, O. Kitao, H. Nakai, T. Vreven, J. A. Montgomery, Jr., 
 J. E. Peralta, F. Ogliaro, M. Bearpark, J. J. Heyd, E. Brothers, 
 K. N. Kudin, V. N. Staroverov, T. Keith, R. Kobayashi, J. Normand, 
 K. Raghavachari, A. Rendell, J. C. Burant, S. S. Iyengar, J. Tomasi, 
 M. Cossi, N. Rega, J. M. Millam, M. Klene, J. E. Knox, J. B. Cross, 
 V. Bakken, C. Adamo, J. Jaramillo, R. Gomperts, R. E. Stratmann, 
 O. Yazyev, A. J. Austin, R. Cammi, C. Pomelli, J. W. Ochterski, 
 R. L. Martin, K. Morokuma, V. G. Zakrzewski, G. A. Voth, 
 P. Salvador, J. J. Dannenberg, S. Dapprich, A. D. Daniels, 
 O. Farkas, J. B. Foresman, J. V. Ortiz, J. Cioslowski, 
 and D. J. Fox, Gaussian, Inc., Wallingford CT, 2013.
 
 ******************************************
 Gaussian 09:  ES64L-G09RevE.01 30-Nov-2015
                 5-May-2018 
 ******************************************
 %Mem=110GB
 %NProcShared=64
 Will use up to   64 processors via shared memory.
 %chk=snap113.chk
 ----------------------------------------------
 #p PBE1PBE/cc-pvDZ force Counterpoise=2 noSymm
 ----------------------------------------------
 1/10=7,30=1,38=1,62=2/1,3;
 2/12=2,15=1,17=6,18=5,40=1/2;
 1/10=7,30=1,38=1,53=2,62=2,63=101/22;
 3/5=16,11=2,16=1,25=1,30=1,71=1,74=-13/1,2,3;
 4//1;
 5/5=2,38=5/2;
 6/7=2,8=2,9=2,10=2,28=1/1;
 7/7=1,29=1,30=1,33=-1/1,2,3,16;
 1/10=7,30=1,53=2,62=2,63=101/22;
 3/5=7,6=11,11=2,16=1,25=1,30=1,71=1,74=-13,82=7/1,2,3;
 4//1;
 5/5=2,38=5/2;
 6/7=2,8=2,9=2,10=2,28=1/1;
 7/7=1,29=1,30=1,33=-1/1,2,3,16;
 1/10=7,30=1,53=2,62=2,63=101/22(-5);
 7/9=1,29=1,44=-1/16;
 1/10=7,30=1,62=2/3;
 99//99;
 Leave Link    1 at Sat May  5 05:11:21 2018, MaxMem= 14763950080 cpu:         6.3
 (Enter /cm/shared/gaussian/g09.e01/intel64-sandybridge/g09/l101.exe)
 ---------------------------------------
 forces on chloride comput - NWATER: 128
 ---------------------------------------
 Symbolic Z-matrix:
 Charge = -1 Multiplicity = 1 in supermolecule
 Charge = -1 Multiplicity = 1 in fragment      1.
 Charge =  0 Multiplicity = 1 in fragment      2.
 Br(Fragment=1)        20.       20.       20. 
 O(Fragment=2)         19.51     22.86     18.36 
 H(Fragment=2)         19.63     21.96     18.66 
 H(Fragment=2)         19.31     23.35     19.16 
 O(Fragment=2)         22.41     20.54     17.7 
 H(Fragment=2)         22.35     21.45     17.39 
 H(Fragment=2)         21.71     20.46     18.34 
 O(Fragment=2)         21.8      18.48     22.46 
 H(Fragment=2)         21.22     19.05     21.94 
 H(Fragment=2)         22.67     18.86     22.36 
 O(Fragment=2)         17.22     19.77     21.86 
 H(Fragment=2)         17.49     20.61     22.24 
 H(Fragment=2)         17.99     19.46     21.39 
 O(Fragment=2)         20.38     16.62     20.15 
 H(Fragment=2)         20.44     16.69     21.1 
 H(Fragment=2)         20.59     17.5      19.83 
 O(Fragment=2)         23.38     19.87     20.79 
 H(Fragment=2)         22.55     20.14     20.4 
 H(Fragment=2)         24.04     20.06     20.12 
 O(Fragment=2)         19.77     23.22     21.29 
 H(Fragment=2)         19.35     23.45     22.12 
 H(Fragment=2)         19.44     22.35     21.08 
 O(Fragment=2)         18.89     19.58     16.7 
 H(Fragment=2)         19.67     19.33     16.22 
 H(Fragment=2)         19.07     19.32     17.6 
 O(Fragment=2)         19.24     20.55     23.76 
 H(Fragment=2)         19.28     19.62     23.99 
 H(Fragment=2)         20.02     20.69     23.22 
 O(Fragment=2)         22.61     17.44     16.95 
 H(Fragment=2)         22.53     17.87     17.8 
 H(Fragment=2)         23.37     17.85     16.54 
 O(Fragment=2)         22.29     23.23     17.18 
 H(Fragment=2)         21.49     23.18     17.69 
 H(Fragment=2)         22.33     24.14     16.88 
 O(Fragment=2)         19.04     15.32     18.06 
 H(Fragment=2)         19.42     14.44     18.08 
 H(Fragment=2)         19.44     15.76     18.81 
 O(Fragment=2)         21.12     25.5      20.15 
 H(Fragment=2)         20.81     24.62     20.38 
 H(Fragment=2)         21.67     25.76     20.88 
 O(Fragment=2)         16.33     22.62     21.44 
 H(Fragment=2)         16.35     23.27     20.74 
 H(Fragment=2)         15.43     22.29     21.44 
 O(Fragment=2)         22.82     15.81     22.9 
 H(Fragment=2)         22.29     16.54     22.59 
 H(Fragment=2)         22.19     15.17     23.22 
 O(Fragment=2)         16.5      19.28     15.45 
 H(Fragment=2)         17.29     19.5      15.94 
 H(Fragment=2)         15.79     19.69     15.94 
 O(Fragment=2)         16.87     21.32     24.62 
 H(Fragment=2)         16.46     20.46     24.77 
 H(Fragment=2)         17.73     21.12     24.25 
 O(Fragment=2)         14.37     19.62     20.79 
 H(Fragment=2)         15.2      19.85     21.23 
 H(Fragment=2)         14.34     20.2      20.03 
 O(Fragment=2)         17.71     23.26     15.66 
 H(Fragment=2)         18.55     23.2      15.21 
 H(Fragment=2)         17.87     22.9      16.53 
 O(Fragment=2)         15.45     18.91     23.69 
 H(Fragment=2)         16.06     18.97     22.95 
 H(Fragment=2)         15.47     17.99     23.95 
 O(Fragment=2)         16.21     15.96     18.5 
 H(Fragment=2)         17.08     16.24     18.22 
 H(Fragment=2)         15.76     15.73     17.69 
 O(Fragment=2)         23.18     18.41     24.9 
 H(Fragment=2)         22.51     18.53     24.22 
 H(Fragment=2)         23.76     17.74     24.55 
 O(Fragment=2)         19.48     18.25     25.07 
 H(Fragment=2)         19.2      17.95     25.93 
 H(Fragment=2)         19.35     17.49     24.5 
 O(Fragment=2)         20.62     18.68     14.72 
 H(Fragment=2)         21.41     19.19     14.55 
 H(Fragment=2)         20.91     17.96     15.28 
 O(Fragment=2)         18.19     23.78     23.59 
 H(Fragment=2)         17.84     24.48     23.04 
 H(Fragment=2)         17.54     23.08     23.54 
 O(Fragment=2)         25.65     20.41     18.28 
 H(Fragment=2)         24.86     20.74     17.85 
 H(Fragment=2)         26.31     20.39     17.59 
 O(Fragment=2)         20.02     22.33     14.65 
 H(Fragment=2)         20.8      22.29     14.09 
 H(Fragment=2)         19.73     21.42     14.72 
 O(Fragment=2)         21.09     20.95     26.05 
 H(Fragment=2)         21.3      20.34     26.76 
 H(Fragment=2)         20.47     20.47     25.5 
 O(Fragment=2)         22.64     20.48     14.47 
 H(Fragment=2)         22.54     21.22     15.06 
 H(Fragment=2)         23.5      20.12     14.69 
 O(Fragment=2)         18.34     17.27     14.64 
 H(Fragment=2)         17.78     17.68     15.3 
 H(Fragment=2)         18.96     17.96     14.4 
 O(Fragment=2)         18.34     25.29     18.34 
 H(Fragment=2)         18.17     25.3      17.4 
 H(Fragment=2)         19.26     25.55     18.42 
 O(Fragment=2)         26.64     19.26     20.73 
 H(Fragment=2)         26.54     19.05     21.66 
 H(Fragment=2)         25.75     19.38     20.41 
 O(Fragment=2)         15.68     25.03     19.32 
 H(Fragment=2)         16.6      24.81     19.44 
 H(Fragment=2)         15.68     25.76     18.71 
 O(Fragment=2)         14.33     17.       20.16 
 H(Fragment=2)         15.03     16.78     19.55 
 H(Fragment=2)         14.45     17.94     20.33 
 O(Fragment=2)         24.98     16.57     21.17 
 H(Fragment=2)         25.82     16.38     21.6 
 H(Fragment=2)         24.33     16.15     21.73 
 O(Fragment=2)         17.23     14.37     20.54 
 H(Fragment=2)         16.84     14.83     19.79 
 H(Fragment=2)         18.13     14.2      20.28 
 O(Fragment=2)         18.86     15.7      24.17 
 H(Fragment=2)         17.91     15.79     24.11 
 H(Fragment=2)         19.09     15.03     23.52 
 O(Fragment=2)         14.17     21.74     18.97 
 H(Fragment=2)         14.32     22.47     19.57 
 H(Fragment=2)         13.24     21.54     19.07 
 O(Fragment=2)         19.87     23.3      25.99 
 H(Fragment=2)         19.37     23.34     25.18 
 H(Fragment=2)         20.4      22.51     25.91 
 O(Fragment=2)         14.6      20.9      16.36 
 H(Fragment=2)         14.58     21.41     17.16 
 H(Fragment=2)         14.71     21.55     15.66 
 O(Fragment=2)         19.93     13.42     20.22 
 H(Fragment=2)         19.9      12.49     19.98 
 H(Fragment=2)         20.72     13.75     19.79 
 O(Fragment=2)         22.6      15.44     15.09 
 H(Fragment=2)         22.81     15.95     14.31 
 H(Fragment=2)         22.61     16.08     15.81 
 O(Fragment=2)         22.29     13.89     18.71 
 H(Fragment=2)         22.55     13.04     19.07 
 H(Fragment=2)         23.12     14.37     18.61 
 O(Fragment=2)         22.24     25.59     22.69 
 H(Fragment=2)         21.47     25.69     23.25 
 H(Fragment=2)         22.96     25.43     23.3 
 O(Fragment=2)         17.07     25.68     22.09 
 H(Fragment=2)         17.52     26.       21.31 
 H(Fragment=2)         16.84     26.47     22.58 
 O(Fragment=2)         23.21     22.74     25.64 
 H(Fragment=2)         23.26     23.2      26.49 
 H(Fragment=2)         22.61     22.02     25.8 
 O(Fragment=2)         20.42     27.       18.17 
 H(Fragment=2)         19.89     27.74     18.44 
 H(Fragment=2)         20.71     26.6      19. 
 O(Fragment=2)         24.87     20.79     24.94 
 H(Fragment=2)         24.41     19.96     25.09 
 H(Fragment=2)         24.25     21.46     25.23 
 O(Fragment=2)         19.65     13.61     22.79 
 H(Fragment=2)         20.54     13.34     23.03 
 H(Fragment=2)         19.6      13.48     21.85 
 O(Fragment=2)         13.48     20.91     23.93 
 H(Fragment=2)         14.2      20.29     23.78 
 H(Fragment=2)         13.28     20.82     24.86 
 O(Fragment=2)         27.28     22.59     19.97 
 H(Fragment=2)         26.67     21.89     19.75 
 H(Fragment=2)         26.75     23.21     20.48 
 O(Fragment=2)         16.25     15.85     24.17 
 H(Fragment=2)         15.77     15.05     24.37 
 H(Fragment=2)         16.48     16.22     25.02 
 O(Fragment=2)         25.69     24.23     21.29 
 H(Fragment=2)         25.7      23.61     22.01 
 H(Fragment=2)         24.94     24.8      21.46 
 O(Fragment=2)         25.02     18.73     15.18 
 H(Fragment=2)         25.36     18.51     14.32 
 H(Fragment=2)         25.39     18.06     15.76 
 O(Fragment=2)         20.22     14.92     13.99 
 H(Fragment=2)         19.67     15.57     14.43 
 H(Fragment=2)         21.1      15.07     14.36 
 O(Fragment=2)         13.62     22.58     21.92 
 H(Fragment=2)         12.78     22.92     21.6 
 H(Fragment=2)         13.38     22.       22.65 
 O(Fragment=2)         22.77     24.05     14.03 
 H(Fragment=2)         22.23     24.8      13.78 
 H(Fragment=2)         22.92     24.17     14.97 
 O(Fragment=2)         24.85     14.13     19.11 
 H(Fragment=2)         24.81     13.99     20.05 
 H(Fragment=2)         25.11     15.05     19.01 
 O(Fragment=2)         17.23     22.73     26.96 
 H(Fragment=2)         17.09     22.63     26.02 
 H(Fragment=2)         17.92     23.39     27.03 
 O(Fragment=2)         22.51     25.88     16.61 
 H(Fragment=2)         21.83     26.4      17.03 
 H(Fragment=2)         23.21     26.5      16.42 
 O(Fragment=2)         16.43     15.62     14.18 
 H(Fragment=2)         16.37     15.77     13.24 
 H(Fragment=2)         17.09     16.25     14.48 
 O(Fragment=2)         14.81     24.24     23.82 
 H(Fragment=2)         15.35     24.82     23.29 
 H(Fragment=2)         14.51     23.56     23.21 
 O(Fragment=2)         26.1      17.16     17.19 
 H(Fragment=2)         26.69     17.86     17.48 
 H(Fragment=2)         26.35     16.4      17.73 
 O(Fragment=2)         14.09     15.13     22.29 
 H(Fragment=2)         15.02     15.23     22.49 
 H(Fragment=2)         13.93     15.74     21.57 
 O(Fragment=2)         26.59     22.18     23.14 
 H(Fragment=2)         27.05     22.86     23.63 
 H(Fragment=2)         26.06     21.72     23.8 
 O(Fragment=2)         12.79     17.46     17.95 
 H(Fragment=2)         13.14     17.29     18.83 
 H(Fragment=2)         13.55     17.37     17.38 
 O(Fragment=2)         16.95     12.82     22.65 
 H(Fragment=2)         17.84     12.63     22.95 
 H(Fragment=2)         17.07     13.41     21.9 
 O(Fragment=2)         18.18     18.28     27.48 
 H(Fragment=2)         17.99     19.18     27.73 
 H(Fragment=2)         17.55     18.08     26.79 
 O(Fragment=2)         18.94     20.59     12.49 
 H(Fragment=2)         18.61     20.49     11.6 
 H(Fragment=2)         19.69     20.       12.53 
 O(Fragment=2)         25.66     23.27     16.37 
 H(Fragment=2)         26.27     23.16     17.1 
 H(Fragment=2)         25.62     24.22     16.23 
 O(Fragment=2)         22.4      18.84     27.61 
 H(Fragment=2)         21.6      18.31     27.56 
 H(Fragment=2)         22.87     18.64     26.8 
 O(Fragment=2)         18.79     26.18     15.74 
 H(Fragment=2)         19.45     26.73     16.16 
 H(Fragment=2)         18.15     26.81     15.4 
 O(Fragment=2)         17.24     26.05     25.33 
 H(Fragment=2)         17.78     25.35     24.95 
 H(Fragment=2)         16.35     25.69     25.34 
 O(Fragment=2)         25.28     16.61     24.34 
 H(Fragment=2)         25.58     16.68     25.25 
 H(Fragment=2)         25.03     15.69     24.24 
 O(Fragment=2)         26.81     18.54     23.54 
 H(Fragment=2)         26.28     17.8      23.82 
 H(Fragment=2)         26.6      19.24     24.16 
 O(Fragment=2)         20.57     26.25     25.25 
 H(Fragment=2)         19.9      26.78     25.68 
 H(Fragment=2)         20.41     25.36     25.56 
 O(Fragment=2)         23.32     27.82     19.53 
 H(Fragment=2)         23.66     28.38     20.23 
 H(Fragment=2)         22.59     27.36     19.93 
 O(Fragment=2)         14.66     15.74     16.03 
 H(Fragment=2)         14.23     16.34     15.43 
 H(Fragment=2)         15.43     15.43     15.56 
 O(Fragment=2)         21.91     12.52     16.13 
 H(Fragment=2)         20.98     12.7      15.95 
 H(Fragment=2)         22.17     13.2      16.75 
 O(Fragment=2)         11.96     18.83     22.52 
 H(Fragment=2)         12.5      19.49     22.95 
 H(Fragment=2)         12.51     18.49     21.82 
 O(Fragment=2)         28.52     18.71     18.68 
 H(Fragment=2)         27.74     18.83     19.23 
 H(Fragment=2)         28.59     19.53     18.18 
 O(Fragment=2)         26.04     21.73     14.13 
 H(Fragment=2)         25.61     22.14     14.89 
 H(Fragment=2)         26.48     20.97     14.5 
 O(Fragment=2)         12.96     23.96     16.53 
 H(Fragment=2)         12.88     24.1      15.59 
 H(Fragment=2)         13.89     23.78     16.67 
 O(Fragment=2)         16.68     25.26     13.67 
 H(Fragment=2)         17.21     24.94     12.94 
 H(Fragment=2)         16.97     24.75     14.42 
 O(Fragment=2)         13.48     25.82     20.85 
 H(Fragment=2)         12.84     25.11     20.91 
 H(Fragment=2)         14.22     25.43     20.38 
 O(Fragment=2)         22.11     13.22     23.63 
 H(Fragment=2)         22.11     12.26     23.62 
 H(Fragment=2)         22.82     13.45     24.23 
 O(Fragment=2)         18.23     23.7      12.31 
 H(Fragment=2)         18.38     22.85     12.73 
 H(Fragment=2)         17.92     23.48     11.43 
 O(Fragment=2)         19.78     17.41     11.81 
 H(Fragment=2)         20.55     16.94     12.15 
 H(Fragment=2)         19.14     17.37     12.52 
 O(Fragment=2)         18.61     14.39     26.76 
 H(Fragment=2)         18.99     14.67     25.93 
 H(Fragment=2)         17.71     14.14     26.54 
 O(Fragment=2)         25.05     13.43     21.96 
 H(Fragment=2)         25.27     13.37     22.89 
 H(Fragment=2)         24.1      13.35     21.94 
 O(Fragment=2)         14.56     19.96     12.89 
 H(Fragment=2)         14.96     20.38     13.65 
 H(Fragment=2)         14.09     20.67     12.44 
 O(Fragment=2)         24.18     21.56     12.21 
 H(Fragment=2)         23.49     21.19     12.77 
 H(Fragment=2)         24.87     21.82     12.83 
 O(Fragment=2)         16.43     11.87     19.3 
 H(Fragment=2)         16.44     12.57     19.95 
 H(Fragment=2)         16.37     11.06     19.82 
 O(Fragment=2)         27.9      16.79     21.76 
 H(Fragment=2)         27.54     17.54     22.24 
 H(Fragment=2)         28.53     17.17     21.15 
 O(Fragment=2)         19.96     27.84     22.97 
 H(Fragment=2)         19.45     28.35     23.6 
 H(Fragment=2)         20.67     27.46     23.49 
 O(Fragment=2)         25.72     26.59     19.25 
 H(Fragment=2)         24.79     26.83     19.3 
 H(Fragment=2)         25.87     26.05     20.03 
 O(Fragment=2)         20.28     25.66     13.13 
 H(Fragment=2)         19.59     25.35     12.55 
 H(Fragment=2)         19.84     25.82     13.97 
 O(Fragment=2)         24.72     25.7      23.96 
 H(Fragment=2)         25.59     26.04     23.78 
 H(Fragment=2)         24.71     25.57     24.91 
 O(Fragment=2)         14.73     21.42     27.01 
 H(Fragment=2)         15.51     21.96     26.92 
 H(Fragment=2)         14.31     21.48     26.15 
 O(Fragment=2)         29.04     20.93     22.47 
 H(Fragment=2)         28.1      21.04     22.34 
 H(Fragment=2)         29.17     19.98     22.49 
 O(Fragment=2)         14.4      22.78     14.22 
 H(Fragment=2)         14.94     23.46     13.81 
 H(Fragment=2)         13.71     22.61     13.58 
 O(Fragment=2)         12.09     19.56     15.29 
 H(Fragment=2)         12.9      20.07     15.23 
 H(Fragment=2)         11.84     19.61     16.21 
 O(Fragment=2)         23.1      16.67     12.71 
 H(Fragment=2)         23.07     17.34     12.02 
 H(Fragment=2)         23.11     15.84     12.24 
 O(Fragment=2)         13.31     17.49     14.39 
 H(Fragment=2)         14.1      17.94     14.07 
 H(Fragment=2)         12.73     18.2      14.65 
 O(Fragment=2)         23.9      28.04     22.27 
 H(Fragment=2)         23.53     28.56     22.99 
 H(Fragment=2)         24.06     27.18     22.64 
 O(Fragment=2)         18.96     12.63     14.8 
 H(Fragment=2)         18.01     12.67     14.8 
 H(Fragment=2)         19.24     13.44     14.38 
 O(Fragment=2)         15.63     16.78     26.88 
 H(Fragment=2)         15.01     17.5      27. 
 H(Fragment=2)         15.71     16.38     27.75 
 O(Fragment=2)         18.22     20.84     28.9 
 H(Fragment=2)         18.99     21.3      29.23 
 H(Fragment=2)         17.78     21.49     28.35 
 O(Fragment=2)         21.42     22.97     11.01 
 H(Fragment=2)         20.93     22.41     11.62 
 H(Fragment=2)         22.31     22.98     11.35 
 O(Fragment=2)         11.56     22.       18.59 
 H(Fragment=2)         11.17     21.14     18.43 
 H(Fragment=2)         11.8      22.32     17.72 
 O(Fragment=2)         27.77     20.43     15.91 
 H(Fragment=2)         28.29     19.66     15.7 
 H(Fragment=2)         28.37     21.16     15.79 
 O(Fragment=2)         15.31     27.17     17.61 
 H(Fragment=2)         14.62     27.81     17.46 
 H(Fragment=2)         15.67     26.99     16.74 
 O(Fragment=2)         16.01     28.43     21.09 
 H(Fragment=2)         15.44     28.66     20.36 
 H(Fragment=2)         15.65     27.62     21.44 
 O(Fragment=2)         11.11     19.48     18.25 
 H(Fragment=2)         11.41     18.6      18.01 
 H(Fragment=2)         10.36     19.32     18.83 
 O(Fragment=2)         21.78     19.91     11.25 
 H(Fragment=2)         22.13     19.09     10.92 
 H(Fragment=2)         22.28     20.59     10.8 
 O(Fragment=2)         18.55     29.28     18.6 
 H(Fragment=2)         18.01     28.7      19.13 
 H(Fragment=2)         17.98     30.03     18.41 
 O(Fragment=2)         26.1      26.1      16.43 
 H(Fragment=2)         25.52     26.83     16.2 
 H(Fragment=2)         26.13     26.12     17.39 
 O(Fragment=2)         16.35     18.13     11.72 
 H(Fragment=2)         15.76     18.79     12.08 
 H(Fragment=2)         16.87     18.6      11.07 
 O(Fragment=2)         25.5      12.2      17.37 
 H(Fragment=2)         24.99     12.67     18.03 
 H(Fragment=2)         26.33     12.69     17.31 
 O(Fragment=2)         25.59     13.63     14.97 
 H(Fragment=2)         24.8      14.16     14.96 
 H(Fragment=2)         25.37     12.88     15.51 
 O(Fragment=2)         25.48     24.73     13.29 
 H(Fragment=2)         26.03     24.6      14.06 
 H(Fragment=2)         24.69     24.22     13.46 
 O(Fragment=2)         19.24     11.17     24.74 
 H(Fragment=2)         19.48     11.98     24.29 
 H(Fragment=2)         19.63     10.48     24.21 
 O(Fragment=2)         16.2      12.8      14.65 
 H(Fragment=2)         15.63     12.43     13.98 
 H(Fragment=2)         16.32     13.71     14.39 
 O(Fragment=2)         23.62     11.54     20.07 
 H(Fragment=2)         24.46     11.83     20.42 
 H(Fragment=2)         23.77     10.64     19.8 
 O(Fragment=2)         13.13     15.98     25.99 
 H(Fragment=2)         12.69     16.33     26.76 
 H(Fragment=2)         14.01     16.37     26.01 
 O(Fragment=2)         19.22     15.86     29.03 
 H(Fragment=2)         19.1      15.24     28.31 
 H(Fragment=2)         19.29     16.71     28.61 
 O(Fragment=2)         24.72     13.72     24.91 
 H(Fragment=2)         25.29     12.98     25.12 
 H(Fragment=2)         24.58     14.16     25.75 
 O(Fragment=2)         26.23     22.34     27.13 
 H(Fragment=2)         25.46     22.1      27.64 
 H(Fragment=2)         26.39     21.58     26.56 
 
 NAtoms=    385 NQM=      385 NQMF=       0 NMMI=      0 NMMIF=      0
                NMic=       0 NMicF=      0.
                    Isotopes and Nuclear Properties:
 (Nuclear quadrupole moments (NQMom) in fm**2, nuclear magnetic moments (NMagM)
  in nuclear magnetons)

  Atom         1           2           3           4           5           6           7           8           9          10
 IAtWgt=          79          16           1           1          16           1           1          16           1           1
 AtmWgt=  78.9183361  15.9949146   1.0078250   1.0078250  15.9949146   1.0078250   1.0078250  15.9949146   1.0078250   1.0078250
 NucSpn=           3           0           1           1           0           1           1           0           1           1
 AtZEff=   0.0000000   0.0000000   0.0000000   0.0000000   0.0000000   0.0000000   0.0000000   0.0000000   0.0000000   0.0000000
 NQMom=   31.3000000   0.0000000   0.0000000   0.0000000   0.0000000   0.0000000   0.0000000   0.0000000   0.0000000   0.0000000
 NMagM=    2.1063990   0.0000000   2.7928460   2.7928460   0.0000000   2.7928460   2.7928460   0.0000000   2.7928460   2.7928460
 AtZNuc=  35.0000000   8.0000000   1.0000000   1.0000000   8.0000000   1.0000000   1.0000000   8.0000000   1.0000000   1.0000000

  Atom        11          12          13          14          15          16          17          18          19          20
 IAtWgt=          16           1           1          16           1           1          16           1           1          16
 AtmWgt=  15.9949146   1.0078250   1.0078250  15.9949146   1.0078250   1.0078250  15.9949146   1.0078250   1.0078250  15.9949146
 NucSpn=           0           1           1           0           1           1           0           1           1           0
 AtZEff=   0.0000000   0.0000000   0.0000000   0.0000000   0.0000000   0.0000000   0.0000000   0.0000000   0.0000000   0.0000000
 NQMom=    0.0000000   0.0000000   0.0000000   0.0000000   0.0000000   0.0000000   0.0000000   0.0000000   0.0000000   0.0000000
 NMagM=    0.0000000   2.7928460   2.7928460   0.0000000   2.7928460   2.7928460   0.0000000   2.7928460   2.7928460   0.0000000
 AtZNuc=   8.0000000   1.0000000   1.0000000   8.0000000   1.0000000   1.0000000   8.0000000   1.0000000   1.0000000   8.0000000

  Atom        21          22          23          24          25          26          27          28          29          30
 IAtWgt=           1           1          16           1           1          16           1           1          16           1
 AtmWgt=   1.0078250   1.0078250  15.9949146   1.0078250   1.0078250  15.9949146   1.0078250   1.0078250  15.9949146   1.0078250
 NucSpn=           1           1           0           1           1           0           1           1           0           1
 AtZEff=   0.0000000   0.0000000   0.0000000   0.0000000   0.0000000   0.0000000   0.0000000   0.0000000   0.0000000   0.0000000
 NQMom=    0.0000000   0.0000000   0.0000000   0.0000000   0.0000000   0.0000000   0.0000000   0.0000000   0.0000000   0.0000000
 NMagM=    2.7928460   2.7928460   0.0000000   2.7928460   2.7928460   0.0000000   2.7928460   2.7928460   0.0000000   2.7928460
 AtZNuc=   1.0000000   1.0000000   8.0000000   1.0000000   1.0000000   8.0000000   1.0000000   1.0000000   8.0000000   1.0000000

  Atom        31          32          33          34          35          36          37          38          39          40
 IAtWgt=           1          16           1           1          16           1           1          16           1           1
 AtmWgt=   1.0078250  15.9949146   1.0078250   1.0078250  15.9949146   1.0078250   1.0078250  15.9949146   1.0078250   1.0078250
 NucSpn=           1           0           1           1           0           1           1           0           1           1
 AtZEff=   0.0000000   0.0000000   0.0000000   0.0000000   0.0000000   0.0000000   0.0000000   0.0000000   0.0000000   0.0000000
 NQMom=    0.0000000   0.0000000   0.0000000   0.0000000   0.0000000   0.0000000   0.0000000   0.0000000   0.0000000   0.0000000
 NMagM=    2.7928460   0.0000000   2.7928460   2.7928460   0.0000000   2.7928460   2.7928460   0.0000000   2.7928460   2.7928460
 AtZNuc=   1.0000000   8.0000000   1.0000000   1.0000000   8.0000000   1.0000000   1.0000000   8.0000000   1.0000000   1.0000000

  Atom        41          42          43          44          45          46          47          48          49          50
 IAtWgt=          16           1           1          16           1           1          16           1           1          16
 AtmWgt=  15.9949146   1.0078250   1.0078250  15.9949146   1.0078250   1.0078250  15.9949146   1.0078250   1.0078250  15.9949146
 NucSpn=           0           1           1           0           1           1           0           1           1           0
 AtZEff=   0.0000000   0.0000000   0.0000000   0.0000000   0.0000000   0.0000000   0.0000000   0.0000000   0.0000000   0.0000000
 NQMom=    0.0000000   0.0000000   0.0000000   0.0000000   0.0000000   0.0000000   0.0000000   0.0000000   0.0000000   0.0000000
 NMagM=    0.0000000   2.7928460   2.7928460   0.0000000   2.7928460   2.7928460   0.0000000   2.7928460   2.7928460   0.0000000
 AtZNuc=   8.0000000   1.0000000   1.0000000   8.0000000   1.0000000   1.0000000   8.0000000   1.0000000   1.0000000   8.0000000

  Atom        51          52          53          54          55          56          57          58          59          60
 IAtWgt=           1           1          16           1           1          16           1           1          16           1
 AtmWgt=   1.0078250   1.0078250  15.9949146   1.0078250   1.0078250  15.9949146   1.0078250   1.0078250  15.9949146   1.0078250
 NucSpn=           1           1           0           1           1           0           1           1           0           1
 AtZEff=   0.0000000   0.0000000   0.0000000   0.0000000   0.0000000   0.0000000   0.0000000   0.0000000   0.0000000   0.0000000
 NQMom=    0.0000000   0.0000000   0.0000000   0.0000000   0.0000000   0.0000000   0.0000000   0.0000000   0.0000000   0.0000000
 NMagM=    2.7928460   2.7928460   0.0000000   2.7928460   2.7928460   0.0000000   2.7928460   2.7928460   0.0000000   2.7928460
 AtZNuc=   1.0000000   1.0000000   8.0000000   1.0000000   1.0000000   8.0000000   1.0000000   1.0000000   8.0000000   1.0000000

  Atom        61          62          63          64          65          66          67          68          69          70
 IAtWgt=           1          16           1           1          16           1           1          16           1           1
 AtmWgt=   1.0078250  15.9949146   1.0078250   1.0078250  15.9949146   1.0078250   1.0078250  15.9949146   1.0078250   1.0078250
 NucSpn=           1           0           1           1           0           1           1           0           1           1
 AtZEff=   0.0000000   0.0000000   0.0000000   0.0000000   0.0000000   0.0000000   0.0000000   0.0000000   0.0000000   0.0000000
 NQMom=    0.0000000   0.0000000   0.0000000   0.0000000   0.0000000   0.0000000   0.0000000   0.0000000   0.0000000   0.0000000
 NMagM=    2.7928460   0.0000000   2.7928460   2.7928460   0.0000000   2.7928460   2.7928460   0.0000000   2.7928460   2.7928460
 AtZNuc=   1.0000000   8.0000000   1.0000000   1.0000000   8.0000000   1.0000000   1.0000000   8.0000000   1.0000000   1.0000000

  Atom        71          72          73          74          75          76          77          78          79          80
 IAtWgt=          16           1           1          16           1           1          16           1           1          16
 AtmWgt=  15.9949146   1.0078250   1.0078250  15.9949146   1.0078250   1.0078250  15.9949146   1.0078250   1.0078250  15.9949146
 NucSpn=           0           1           1           0           1           1           0           1           1           0
 AtZEff=   0.0000000   0.0000000   0.0000000   0.0000000   0.0000000   0.0000000   0.0000000   0.0000000   0.0000000   0.0000000
 NQMom=    0.0000000   0.0000000   0.0000000   0.0000000   0.0000000   0.0000000   0.0000000   0.0000000   0.0000000   0.0000000
 NMagM=    0.0000000   2.7928460   2.7928460   0.0000000   2.7928460   2.7928460   0.0000000   2.7928460   2.7928460   0.0000000
 AtZNuc=   8.0000000   1.0000000   1.0000000   8.0000000   1.0000000   1.0000000   8.0000000   1.0000000   1.0000000   8.0000000

  Atom        81          82          83          84          85          86          87          88          89          90
 IAtWgt=           1           1          16           1           1          16           1           1          16           1
 AtmWgt=   1.0078250   1.0078250  15.9949146   1.0078250   1.0078250  15.9949146   1.0078250   1.0078250  15.9949146   1.0078250
 NucSpn=           1           1           0           1           1           0           1           1           0           1
 AtZEff=   0.0000000   0.0000000   0.0000000   0.0000000   0.0000000   0.0000000   0.0000000   0.0000000   0.0000000   0.0000000
 NQMom=    0.0000000   0.0000000   0.0000000   0.0000000   0.0000000   0.0000000   0.0000000   0.0000000   0.0000000   0.0000000
 NMagM=    2.7928460   2.7928460   0.0000000   2.7928460   2.7928460   0.0000000   2.7928460   2.7928460   0.0000000   2.7928460
 AtZNuc=   1.0000000   1.0000000   8.0000000   1.0000000   1.0000000   8.0000000   1.0000000   1.0000000   8.0000000   1.0000000

  Atom        91          92          93          94          95          96          97          98          99         100
 IAtWgt=           1          16           1           1          16           1           1          16           1           1
 AtmWgt=   1.0078250  15.9949146   1.0078250   1.0078250  15.9949146   1.0078250   1.0078250  15.9949146   1.0078250   1.0078250
 NucSpn=           1           0           1           1           0           1           1           0           1           1
 AtZEff=   0.0000000   0.0000000   0.0000000   0.0000000   0.0000000   0.0000000   0.0000000   0.0000000   0.0000000   0.0000000
 NQMom=    0.0000000   0.0000000   0.0000000   0.0000000   0.0000000   0.0000000   0.0000000   0.0000000   0.0000000   0.0000000
 NMagM=    2.7928460   0.0000000   2.7928460   2.7928460   0.0000000   2.7928460   2.7928460   0.0000000   2.7928460   2.7928460
 AtZNuc=   1.0000000   8.0000000   1.0000000   1.0000000   8.0000000   1.0000000   1.0000000   8.0000000   1.0000000   1.0000000

  Atom       101         102         103         104         105         106         107         108         109         110
 IAtWgt=          16           1           1          16           1           1          16           1           1          16
 AtmWgt=  15.9949146   1.0078250   1.0078250  15.9949146   1.0078250   1.0078250  15.9949146   1.0078250   1.0078250  15.9949146
 NucSpn=           0           1           1           0           1           1           0           1           1           0
 AtZEff=   0.0000000   0.0000000   0.0000000   0.0000000   0.0000000   0.0000000   0.0000000   0.0000000   0.0000000   0.0000000
 NQMom=    0.0000000   0.0000000   0.0000000   0.0000000   0.0000000   0.0000000   0.0000000   0.0000000   0.0000000   0.0000000
 NMagM=    0.0000000   2.7928460   2.7928460   0.0000000   2.7928460   2.7928460   0.0000000   2.7928460   2.7928460   0.0000000
 AtZNuc=   8.0000000   1.0000000   1.0000000   8.0000000   1.0000000   1.0000000   8.0000000   1.0000000   1.0000000   8.0000000

  Atom       111         112         113         114         115         116         117         118         119         120
 IAtWgt=           1           1          16           1           1          16           1           1          16           1
 AtmWgt=   1.0078250   1.0078250  15.9949146   1.0078250   1.0078250  15.9949146   1.0078250   1.0078250  15.9949146   1.0078250
 NucSpn=           1           1           0           1           1           0           1           1           0           1
 AtZEff=   0.0000000   0.0000000   0.0000000   0.0000000   0.0000000   0.0000000   0.0000000   0.0000000   0.0000000   0.0000000
 NQMom=    0.0000000   0.0000000   0.0000000   0.0000000   0.0000000   0.0000000   0.0000000   0.0000000   0.0000000   0.0000000
 NMagM=    2.7928460   2.7928460   0.0000000   2.7928460   2.7928460   0.0000000   2.7928460   2.7928460   0.0000000   2.7928460
 AtZNuc=   1.0000000   1.0000000   8.0000000   1.0000000   1.0000000   8.0000000   1.0000000   1.0000000   8.0000000   1.0000000

  Atom       121         122         123         124         125         126         127         128         129         130
 IAtWgt=           1          16           1           1          16           1           1          16           1           1
 AtmWgt=   1.0078250  15.9949146   1.0078250   1.0078250  15.9949146   1.0078250   1.0078250  15.9949146   1.0078250   1.0078250
 NucSpn=           1           0           1           1           0           1           1           0           1           1
 AtZEff=   0.0000000   0.0000000   0.0000000   0.0000000   0.0000000   0.0000000   0.0000000   0.0000000   0.0000000   0.0000000
 NQMom=    0.0000000   0.0000000   0.0000000   0.0000000   0.0000000   0.0000000   0.0000000   0.0000000   0.0000000   0.0000000
 NMagM=    2.7928460   0.0000000   2.7928460   2.7928460   0.0000000   2.7928460   2.7928460   0.0000000   2.7928460   2.7928460
 AtZNuc=   1.0000000   8.0000000   1.0000000   1.0000000   8.0000000   1.0000000   1.0000000   8.0000000   1.0000000   1.0000000

  Atom       131         132         133         134         135         136         137         138         139         140
 IAtWgt=          16           1           1          16           1           1          16           1           1          16
 AtmWgt=  15.9949146   1.0078250   1.0078250  15.9949146   1.0078250   1.0078250  15.9949146   1.0078250   1.0078250  15.9949146
 NucSpn=           0           1           1           0           1           1           0           1           1           0
 AtZEff=   0.0000000   0.0000000   0.0000000   0.0000000   0.0000000   0.0000000   0.0000000   0.0000000   0.0000000   0.0000000
 NQMom=    0.0000000   0.0000000   0.0000000   0.0000000   0.0000000   0.0000000   0.0000000   0.0000000   0.0000000   0.0000000
 NMagM=    0.0000000   2.7928460   2.7928460   0.0000000   2.7928460   2.7928460   0.0000000   2.7928460   2.7928460   0.0000000
 AtZNuc=   8.0000000   1.0000000   1.0000000   8.0000000   1.0000000   1.0000000   8.0000000   1.0000000   1.0000000   8.0000000

  Atom       141         142         143         144         145         146         147         148         149         150
 IAtWgt=           1           1          16           1           1          16           1           1          16           1
 AtmWgt=   1.0078250   1.0078250  15.9949146   1.0078250   1.0078250  15.9949146   1.0078250   1.0078250  15.9949146   1.0078250
 NucSpn=           1           1           0           1           1           0           1           1           0           1
 AtZEff=   0.0000000   0.0000000   0.0000000   0.0000000   0.0000000   0.0000000   0.0000000   0.0000000   0.0000000   0.0000000
 NQMom=    0.0000000   0.0000000   0.0000000   0.0000000   0.0000000   0.0000000   0.0000000   0.0000000   0.0000000   0.0000000
 NMagM=    2.7928460   2.7928460   0.0000000   2.7928460   2.7928460   0.0000000   2.7928460   2.7928460   0.0000000   2.7928460
 AtZNuc=   1.0000000   1.0000000   8.0000000   1.0000000   1.0000000   8.0000000   1.0000000   1.0000000   8.0000000   1.0000000

  Atom       151         152         153         154         155         156         157         158         159         160
 IAtWgt=           1          16           1           1          16           1           1          16           1           1
 AtmWgt=   1.0078250  15.9949146   1.0078250   1.0078250  15.9949146   1.0078250   1.0078250  15.9949146   1.0078250   1.0078250
 NucSpn=           1           0           1           1           0           1           1           0           1           1
 AtZEff=   0.0000000   0.0000000   0.0000000   0.0000000   0.0000000   0.0000000   0.0000000   0.0000000   0.0000000   0.0000000
 NQMom=    0.0000000   0.0000000   0.0000000   0.0000000   0.0000000   0.0000000   0.0000000   0.0000000   0.0000000   0.0000000
 NMagM=    2.7928460   0.0000000   2.7928460   2.7928460   0.0000000   2.7928460   2.7928460   0.0000000   2.7928460   2.7928460
 AtZNuc=   1.0000000   8.0000000   1.0000000   1.0000000   8.0000000   1.0000000   1.0000000   8.0000000   1.0000000   1.0000000

  Atom       161         162         163         164         165         166         167         168         169         170
 IAtWgt=          16           1           1          16           1           1          16           1           1          16
 AtmWgt=  15.9949146   1.0078250   1.0078250  15.9949146   1.0078250   1.0078250  15.9949146   1.0078250   1.0078250  15.9949146
 NucSpn=           0           1           1           0           1           1           0           1           1           0
 AtZEff=   0.0000000   0.0000000   0.0000000   0.0000000   0.0000000   0.0000000   0.0000000   0.0000000   0.0000000   0.0000000
 NQMom=    0.0000000   0.0000000   0.0000000   0.0000000   0.0000000   0.0000000   0.0000000   0.0000000   0.0000000   0.0000000
 NMagM=    0.0000000   2.7928460   2.7928460   0.0000000   2.7928460   2.7928460   0.0000000   2.7928460   2.7928460   0.0000000
 AtZNuc=   8.0000000   1.0000000   1.0000000   8.0000000   1.0000000   1.0000000   8.0000000   1.0000000   1.0000000   8.0000000

  Atom       171         172         173         174         175         176         177         178         179         180
 IAtWgt=           1           1          16           1           1          16           1           1          16           1
 AtmWgt=   1.0078250   1.0078250  15.9949146   1.0078250   1.0078250  15.9949146   1.0078250   1.0078250  15.9949146   1.0078250
 NucSpn=           1           1           0           1           1           0           1           1           0           1
 AtZEff=   0.0000000   0.0000000   0.0000000   0.0000000   0.0000000   0.0000000   0.0000000   0.0000000   0.0000000   0.0000000
 NQMom=    0.0000000   0.0000000   0.0000000   0.0000000   0.0000000   0.0000000   0.0000000   0.0000000   0.0000000   0.0000000
 NMagM=    2.7928460   2.7928460   0.0000000   2.7928460   2.7928460   0.0000000   2.7928460   2.7928460   0.0000000   2.7928460
 AtZNuc=   1.0000000   1.0000000   8.0000000   1.0000000   1.0000000   8.0000000   1.0000000   1.0000000   8.0000000   1.0000000

  Atom       181         182         183         184         185         186         187         188         189         190
 IAtWgt=           1          16           1           1          16           1           1          16           1           1
 AtmWgt=   1.0078250  15.9949146   1.0078250   1.0078250  15.9949146   1.0078250   1.0078250  15.9949146   1.0078250   1.0078250
 NucSpn=           1           0           1           1           0           1           1           0           1           1
 AtZEff=   0.0000000   0.0000000   0.0000000   0.0000000   0.0000000   0.0000000   0.0000000   0.0000000   0.0000000   0.0000000
 NQMom=    0.0000000   0.0000000   0.0000000   0.0000000   0.0000000   0.0000000   0.0000000   0.0000000   0.0000000   0.0000000
 NMagM=    2.7928460   0.0000000   2.7928460   2.7928460   0.0000000   2.7928460   2.7928460   0.0000000   2.7928460   2.7928460
 AtZNuc=   1.0000000   8.0000000   1.0000000   1.0000000   8.0000000   1.0000000   1.0000000   8.0000000   1.0000000   1.0000000

  Atom       191         192         193         194         195         196         197         198         199         200
 IAtWgt=          16           1           1          16           1           1          16           1           1          16
 AtmWgt=  15.9949146   1.0078250   1.0078250  15.9949146   1.0078250   1.0078250  15.9949146   1.0078250   1.0078250  15.9949146
 NucSpn=           0           1           1           0           1           1           0           1           1           0
 AtZEff=   0.0000000   0.0000000   0.0000000   0.0000000   0.0000000   0.0000000   0.0000000   0.0000000   0.0000000   0.0000000
 NQMom=    0.0000000   0.0000000   0.0000000   0.0000000   0.0000000   0.0000000   0.0000000   0.0000000   0.0000000   0.0000000
 NMagM=    0.0000000   2.7928460   2.7928460   0.0000000   2.7928460   2.7928460   0.0000000   2.7928460   2.7928460   0.0000000
 AtZNuc=   8.0000000   1.0000000   1.0000000   8.0000000   1.0000000   1.0000000   8.0000000   1.0000000   1.0000000   8.0000000

  Atom       201         202         203         204         205         206         207         208         209         210
 IAtWgt=           1           1          16           1           1          16           1           1          16           1
 AtmWgt=   1.0078250   1.0078250  15.9949146   1.0078250   1.0078250  15.9949146   1.0078250   1.0078250  15.9949146   1.0078250
 NucSpn=           1           1           0           1           1           0           1           1           0           1
 AtZEff=   0.0000000   0.0000000   0.0000000   0.0000000   0.0000000   0.0000000   0.0000000   0.0000000   0.0000000   0.0000000
 NQMom=    0.0000000   0.0000000   0.0000000   0.0000000   0.0000000   0.0000000   0.0000000   0.0000000   0.0000000   0.0000000
 NMagM=    2.7928460   2.7928460   0.0000000   2.7928460   2.7928460   0.0000000   2.7928460   2.7928460   0.0000000   2.7928460
 AtZNuc=   1.0000000   1.0000000   8.0000000   1.0000000   1.0000000   8.0000000   1.0000000   1.0000000   8.0000000   1.0000000

  Atom       211         212         213         214         215         216         217         218         219         220
 IAtWgt=           1          16           1           1          16           1           1          16           1           1
 AtmWgt=   1.0078250  15.9949146   1.0078250   1.0078250  15.9949146   1.0078250   1.0078250  15.9949146   1.0078250   1.0078250
 NucSpn=           1           0           1           1           0           1           1           0           1           1
 AtZEff=   0.0000000   0.0000000   0.0000000   0.0000000   0.0000000   0.0000000   0.0000000   0.0000000   0.0000000   0.0000000
 NQMom=    0.0000000   0.0000000   0.0000000   0.0000000   0.0000000   0.0000000   0.0000000   0.0000000   0.0000000   0.0000000
 NMagM=    2.7928460   0.0000000   2.7928460   2.7928460   0.0000000   2.7928460   2.7928460   0.0000000   2.7928460   2.7928460
 AtZNuc=   1.0000000   8.0000000   1.0000000   1.0000000   8.0000000   1.0000000   1.0000000   8.0000000   1.0000000   1.0000000

  Atom       221         222         223         224         225         226         227         228         229         230
 IAtWgt=          16           1           1          16           1           1          16           1           1          16
 AtmWgt=  15.9949146   1.0078250   1.0078250  15.9949146   1.0078250   1.0078250  15.9949146   1.0078250   1.0078250  15.9949146
 NucSpn=           0           1           1           0           1           1           0           1           1           0
 AtZEff=   0.0000000   0.0000000   0.0000000   0.0000000   0.0000000   0.0000000   0.0000000   0.0000000   0.0000000   0.0000000
 NQMom=    0.0000000   0.0000000   0.0000000   0.0000000   0.0000000   0.0000000   0.0000000   0.0000000   0.0000000   0.0000000
 NMagM=    0.0000000   2.7928460   2.7928460   0.0000000   2.7928460   2.7928460   0.0000000   2.7928460   2.7928460   0.0000000
 AtZNuc=   8.0000000   1.0000000   1.0000000   8.0000000   1.0000000   1.0000000   8.0000000   1.0000000   1.0000000   8.0000000

  Atom       231         232         233         234         235         236         237         238         239         240
 IAtWgt=           1           1          16           1           1          16           1           1          16           1
 AtmWgt=   1.0078250   1.0078250  15.9949146   1.0078250   1.0078250  15.9949146   1.0078250   1.0078250  15.9949146   1.0078250
 NucSpn=           1           1           0           1           1           0           1           1           0           1
 AtZEff=   0.0000000   0.0000000   0.0000000   0.0000000   0.0000000   0.0000000   0.0000000   0.0000000   0.0000000   0.0000000
 NQMom=    0.0000000   0.0000000   0.0000000   0.0000000   0.0000000   0.0000000   0.0000000   0.0000000   0.0000000   0.0000000
 NMagM=    2.7928460   2.7928460   0.0000000   2.7928460   2.7928460   0.0000000   2.7928460   2.7928460   0.0000000   2.7928460
 AtZNuc=   1.0000000   1.0000000   8.0000000   1.0000000   1.0000000   8.0000000   1.0000000   1.0000000   8.0000000   1.0000000

  Atom       241         242         243         244         245         246         247         248         249         250
 IAtWgt=           1          16           1           1          16           1           1          16           1           1
 AtmWgt=   1.0078250  15.9949146   1.0078250   1.0078250  15.9949146   1.0078250   1.0078250  15.9949146   1.0078250   1.0078250
 NucSpn=           1           0           1           1           0           1           1           0           1           1
 AtZEff=   0.0000000   0.0000000   0.0000000   0.0000000   0.0000000   0.0000000   0.0000000   0.0000000   0.0000000   0.0000000
 NQMom=    0.0000000   0.0000000   0.0000000   0.0000000   0.0000000   0.0000000   0.0000000   0.0000000   0.0000000   0.0000000
 NMagM=    2.7928460   0.0000000   2.7928460   2.7928460   0.0000000   2.7928460   2.7928460   0.0000000   2.7928460   2.7928460
 AtZNuc=   1.0000000   8.0000000   1.0000000   1.0000000   8.0000000   1.0000000   1.0000000   8.0000000   1.0000000   1.0000000

  Atom       251         252         253         254         255         256         257         258         259         260
 IAtWgt=          16           1           1          16           1           1          16           1           1          16
 AtmWgt=  15.9949146   1.0078250   1.0078250  15.9949146   1.0078250   1.0078250  15.9949146   1.0078250   1.0078250  15.9949146
 NucSpn=           0           1           1           0           1           1           0           1           1           0
 AtZEff=   0.0000000   0.0000000   0.0000000   0.0000000   0.0000000   0.0000000   0.0000000   0.0000000   0.0000000   0.0000000
 NQMom=    0.0000000   0.0000000   0.0000000   0.0000000   0.0000000   0.0000000   0.0000000   0.0000000   0.0000000   0.0000000
 NMagM=    0.0000000   2.7928460   2.7928460   0.0000000   2.7928460   2.7928460   0.0000000   2.7928460   2.7928460   0.0000000
 AtZNuc=   8.0000000   1.0000000   1.0000000   8.0000000   1.0000000   1.0000000   8.0000000   1.0000000   1.0000000   8.0000000

  Atom       261         262         263         264         265         266         267         268         269         270
 IAtWgt=           1           1          16           1           1          16           1           1          16           1
 AtmWgt=   1.0078250   1.0078250  15.9949146   1.0078250   1.0078250  15.9949146   1.0078250   1.0078250  15.9949146   1.0078250
 NucSpn=           1           1           0           1           1           0           1           1           0           1
 AtZEff=   0.0000000   0.0000000   0.0000000   0.0000000   0.0000000   0.0000000   0.0000000   0.0000000   0.0000000   0.0000000
 NQMom=    0.0000000   0.0000000   0.0000000   0.0000000   0.0000000   0.0000000   0.0000000   0.0000000   0.0000000   0.0000000
 NMagM=    2.7928460   2.7928460   0.0000000   2.7928460   2.7928460   0.0000000   2.7928460   2.7928460   0.0000000   2.7928460
 AtZNuc=   1.0000000   1.0000000   8.0000000   1.0000000   1.0000000   8.0000000   1.0000000   1.0000000   8.0000000   1.0000000

  Atom       271         272         273         274         275         276         277         278         279         280
 IAtWgt=           1          16           1           1          16           1           1          16           1           1
 AtmWgt=   1.0078250  15.9949146   1.0078250   1.0078250  15.9949146   1.0078250   1.0078250  15.9949146   1.0078250   1.0078250
 NucSpn=           1           0           1           1           0           1           1           0           1           1
 AtZEff=   0.0000000   0.0000000   0.0000000   0.0000000   0.0000000   0.0000000   0.0000000   0.0000000   0.0000000   0.0000000
 NQMom=    0.0000000   0.0000000   0.0000000   0.0000000   0.0000000   0.0000000   0.0000000   0.0000000   0.0000000   0.0000000
 NMagM=    2.7928460   0.0000000   2.7928460   2.7928460   0.0000000   2.7928460   2.7928460   0.0000000   2.7928460   2.7928460
 AtZNuc=   1.0000000   8.0000000   1.0000000   1.0000000   8.0000000   1.0000000   1.0000000   8.0000000   1.0000000   1.0000000

  Atom       281         282         283         284         285         286         287         288         289         290
 IAtWgt=          16           1           1          16           1           1          16           1           1          16
 AtmWgt=  15.9949146   1.0078250   1.0078250  15.9949146   1.0078250   1.0078250  15.9949146   1.0078250   1.0078250  15.9949146
 NucSpn=           0           1           1           0           1           1           0           1           1           0
 AtZEff=   0.0000000   0.0000000   0.0000000   0.0000000   0.0000000   0.0000000   0.0000000   0.0000000   0.0000000   0.0000000
 NQMom=    0.0000000   0.0000000   0.0000000   0.0000000   0.0000000   0.0000000   0.0000000   0.0000000   0.0000000   0.0000000
 NMagM=    0.0000000   2.7928460   2.7928460   0.0000000   2.7928460   2.7928460   0.0000000   2.7928460   2.7928460   0.0000000
 AtZNuc=   8.0000000   1.0000000   1.0000000   8.0000000   1.0000000   1.0000000   8.0000000   1.0000000   1.0000000   8.0000000

  Atom       291         292         293         294         295         296         297         298         299         300
 IAtWgt=           1           1          16           1           1          16           1           1          16           1
 AtmWgt=   1.0078250   1.0078250  15.9949146   1.0078250   1.0078250  15.9949146   1.0078250   1.0078250  15.9949146   1.0078250
 NucSpn=           1           1           0           1           1           0           1           1           0           1
 AtZEff=   0.0000000   0.0000000   0.0000000   0.0000000   0.0000000   0.0000000   0.0000000   0.0000000   0.0000000   0.0000000
 NQMom=    0.0000000   0.0000000   0.0000000   0.0000000   0.0000000   0.0000000   0.0000000   0.0000000   0.0000000   0.0000000
 NMagM=    2.7928460   2.7928460   0.0000000   2.7928460   2.7928460   0.0000000   2.7928460   2.7928460   0.0000000   2.7928460
 AtZNuc=   1.0000000   1.0000000   8.0000000   1.0000000   1.0000000   8.0000000   1.0000000   1.0000000   8.0000000   1.0000000

  Atom       301         302         303         304         305         306         307         308         309         310
 IAtWgt=           1          16           1           1          16           1           1          16           1           1
 AtmWgt=   1.0078250  15.9949146   1.0078250   1.0078250  15.9949146   1.0078250   1.0078250  15.9949146   1.0078250   1.0078250
 NucSpn=           1           0           1           1           0           1           1           0           1           1
 AtZEff=   0.0000000   0.0000000   0.0000000   0.0000000   0.0000000   0.0000000   0.0000000   0.0000000   0.0000000   0.0000000
 NQMom=    0.0000000   0.0000000   0.0000000   0.0000000   0.0000000   0.0000000   0.0000000   0.0000000   0.0000000   0.0000000
 NMagM=    2.7928460   0.0000000   2.7928460   2.7928460   0.0000000   2.7928460   2.7928460   0.0000000   2.7928460   2.7928460
 AtZNuc=   1.0000000   8.0000000   1.0000000   1.0000000   8.0000000   1.0000000   1.0000000   8.0000000   1.0000000   1.0000000

  Atom       311         312         313         314         315         316         317         318         319         320
 IAtWgt=          16           1           1          16           1           1          16           1           1          16
 AtmWgt=  15.9949146   1.0078250   1.0078250  15.9949146   1.0078250   1.0078250  15.9949146   1.0078250   1.0078250  15.9949146
 NucSpn=           0           1           1           0           1           1           0           1           1           0
 AtZEff=   0.0000000   0.0000000   0.0000000   0.0000000   0.0000000   0.0000000   0.0000000   0.0000000   0.0000000   0.0000000
 NQMom=    0.0000000   0.0000000   0.0000000   0.0000000   0.0000000   0.0000000   0.0000000   0.0000000   0.0000000   0.0000000
 NMagM=    0.0000000   2.7928460   2.7928460   0.0000000   2.7928460   2.7928460   0.0000000   2.7928460   2.7928460   0.0000000
 AtZNuc=   8.0000000   1.0000000   1.0000000   8.0000000   1.0000000   1.0000000   8.0000000   1.0000000   1.0000000   8.0000000

  Atom       321         322         323         324         325         326         327         328         329         330
 IAtWgt=           1           1          16           1           1          16           1           1          16           1
 AtmWgt=   1.0078250   1.0078250  15.9949146   1.0078250   1.0078250  15.9949146   1.0078250   1.0078250  15.9949146   1.0078250
 NucSpn=           1           1           0           1           1           0           1           1           0           1
 AtZEff=   0.0000000   0.0000000   0.0000000   0.0000000   0.0000000   0.0000000   0.0000000   0.0000000   0.0000000   0.0000000
 NQMom=    0.0000000   0.0000000   0.0000000   0.0000000   0.0000000   0.0000000   0.0000000   0.0000000   0.0000000   0.0000000
 NMagM=    2.7928460   2.7928460   0.0000000   2.7928460   2.7928460   0.0000000   2.7928460   2.7928460   0.0000000   2.7928460
 AtZNuc=   1.0000000   1.0000000   8.0000000   1.0000000   1.0000000   8.0000000   1.0000000   1.0000000   8.0000000   1.0000000

  Atom       331         332         333         334         335         336         337         338         339         340
 IAtWgt=           1          16           1           1          16           1           1          16           1           1
 AtmWgt=   1.0078250  15.9949146   1.0078250   1.0078250  15.9949146   1.0078250   1.0078250  15.9949146   1.0078250   1.0078250
 NucSpn=           1           0           1           1           0           1           1           0           1           1
 AtZEff=   0.0000000   0.0000000   0.0000000   0.0000000   0.0000000   0.0000000   0.0000000   0.0000000   0.0000000   0.0000000
 NQMom=    0.0000000   0.0000000   0.0000000   0.0000000   0.0000000   0.0000000   0.0000000   0.0000000   0.0000000   0.0000000
 NMagM=    2.7928460   0.0000000   2.7928460   2.7928460   0.0000000   2.7928460   2.7928460   0.0000000   2.7928460   2.7928460
 AtZNuc=   1.0000000   8.0000000   1.0000000   1.0000000   8.0000000   1.0000000   1.0000000   8.0000000   1.0000000   1.0000000

  Atom       341         342         343         344         345         346         347         348         349         350
 IAtWgt=          16           1           1          16           1           1          16           1           1          16
 AtmWgt=  15.9949146   1.0078250   1.0078250  15.9949146   1.0078250   1.0078250  15.9949146   1.0078250   1.0078250  15.9949146
 NucSpn=           0           1           1           0           1           1           0           1           1           0
 AtZEff=   0.0000000   0.0000000   0.0000000   0.0000000   0.0000000   0.0000000   0.0000000   0.0000000   0.0000000   0.0000000
 NQMom=    0.0000000   0.0000000   0.0000000   0.0000000   0.0000000   0.0000000   0.0000000   0.0000000   0.0000000   0.0000000
 NMagM=    0.0000000   2.7928460   2.7928460   0.0000000   2.7928460   2.7928460   0.0000000   2.7928460   2.7928460   0.0000000
 AtZNuc=   8.0000000   1.0000000   1.0000000   8.0000000   1.0000000   1.0000000   8.0000000   1.0000000   1.0000000   8.0000000

  Atom       351         352         353         354         355         356         357         358         359         360
 IAtWgt=           1           1          16           1           1          16           1           1          16           1
 AtmWgt=   1.0078250   1.0078250  15.9949146   1.0078250   1.0078250  15.9949146   1.0078250   1.0078250  15.9949146   1.0078250
 NucSpn=           1           1           0           1           1           0           1           1           0           1
 AtZEff=   0.0000000   0.0000000   0.0000000   0.0000000   0.0000000   0.0000000   0.0000000   0.0000000   0.0000000   0.0000000
 NQMom=    0.0000000   0.0000000   0.0000000   0.0000000   0.0000000   0.0000000   0.0000000   0.0000000   0.0000000   0.0000000
 NMagM=    2.7928460   2.7928460   0.0000000   2.7928460   2.7928460   0.0000000   2.7928460   2.7928460   0.0000000   2.7928460
 AtZNuc=   1.0000000   1.0000000   8.0000000   1.0000000   1.0000000   8.0000000   1.0000000   1.0000000   8.0000000   1.0000000

  Atom       361         362         363         364         365         366         367         368         369         370
 IAtWgt=           1          16           1           1          16           1           1          16           1           1
 AtmWgt=   1.0078250  15.9949146   1.0078250   1.0078250  15.9949146   1.0078250   1.0078250  15.9949146   1.0078250   1.0078250
 NucSpn=           1           0           1           1           0           1           1           0           1           1
 AtZEff=   0.0000000   0.0000000   0.0000000   0.0000000   0.0000000   0.0000000   0.0000000   0.0000000   0.0000000   0.0000000
 NQMom=    0.0000000   0.0000000   0.0000000   0.0000000   0.0000000   0.0000000   0.0000000   0.0000000   0.0000000   0.0000000
 NMagM=    2.7928460   0.0000000   2.7928460   2.7928460   0.0000000   2.7928460   2.7928460   0.0000000   2.7928460   2.7928460
 AtZNuc=   1.0000000   8.0000000   1.0000000   1.0000000   8.0000000   1.0000000   1.0000000   8.0000000   1.0000000   1.0000000

  Atom       371         372         373         374         375         376         377         378         379         380
 IAtWgt=          16           1           1          16           1           1          16           1           1          16
 AtmWgt=  15.9949146   1.0078250   1.0078250  15.9949146   1.0078250   1.0078250  15.9949146   1.0078250   1.0078250  15.9949146
 NucSpn=           0           1           1           0           1           1           0           1           1           0
 AtZEff=   0.0000000   0.0000000   0.0000000   0.0000000   0.0000000   0.0000000   0.0000000   0.0000000   0.0000000   0.0000000
 NQMom=    0.0000000   0.0000000   0.0000000   0.0000000   0.0000000   0.0000000   0.0000000   0.0000000   0.0000000   0.0000000
 NMagM=    0.0000000   2.7928460   2.7928460   0.0000000   2.7928460   2.7928460   0.0000000   2.7928460   2.7928460   0.0000000
 AtZNuc=   8.0000000   1.0000000   1.0000000   8.0000000   1.0000000   1.0000000   8.0000000   1.0000000   1.0000000   8.0000000

  Atom       381         382         383         384         385
 IAtWgt=           1           1          16           1           1
 AtmWgt=   1.0078250   1.0078250  15.9949146   1.0078250   1.0078250
 NucSpn=           1           1           0           1           1
 AtZEff=   0.0000000   0.0000000   0.0000000   0.0000000   0.0000000
 NQMom=    0.0000000   0.0000000   0.0000000   0.0000000   0.0000000
 NMagM=    2.7928460   2.7928460   0.0000000   2.7928460   2.7928460
 AtZNuc=   1.0000000   1.0000000   8.0000000   1.0000000   1.0000000
 Leave Link  101 at Sat May  5 05:11:22 2018, MaxMem= 14763950080 cpu:        38.0
 (Enter /cm/shared/gaussian/g09.e01/intel64-sandybridge/g09/l103.exe)

 GradGradGradGradGradGradGradGradGradGradGradGradGradGradGradGradGradGrad
 Berny optimization.
 Initialization pass.
 Trust Radius=3.00D-01 FncErr=1.00D-07 GrdErr=1.00D-07
 Number of steps in this run=      2 maximum allowed number of steps=      2.
 GradGradGradGradGradGradGradGradGradGradGradGradGradGradGradGradGradGrad

 Leave Link  103 at Sat May  5 05:11:22 2018, MaxMem= 14763950080 cpu:         6.2
 (Enter /cm/shared/gaussian/g09.e01/intel64-sandybridge/g09/l202.exe)
 Symmetry turned off by external request.
 Stoichiometry    BrH256O128(1-)
 Framework group  C1[X(BrH256O128)]
 Deg. of freedom  1149
 Full point group                 C1      NOp   1
                          Input orientation:                          
 ---------------------------------------------------------------------
 Center     Atomic      Atomic             Coordinates (Angstroms)
 Number     Number       Type             X           Y           Z
 ---------------------------------------------------------------------
      1         35           0       20.000000   20.000000   20.000000
      2          8           0       19.510000   22.860000   18.360000
      3          1           0       19.630000   21.960000   18.660000
      4          1           0       19.310000   23.350000   19.160000
      5          8           0       22.410000   20.540000   17.700000
      6          1           0       22.350000   21.450000   17.390000
      7          1           0       21.710000   20.460000   18.340000
      8          8           0       21.800000   18.480000   22.460000
      9          1           0       21.220000   19.050000   21.940000
     10          1           0       22.670000   18.860000   22.360000
     11          8           0       17.220000   19.770000   21.860000
     12          1           0       17.490000   20.610000   22.240000
     13          1           0       17.990000   19.460000   21.390000
     14          8           0       20.380000   16.620000   20.150000
     15          1           0       20.440000   16.690000   21.100000
     16          1           0       20.590000   17.500000   19.830000
     17          8           0       23.380000   19.870000   20.790000
     18          1           0       22.550000   20.140000   20.400000
     19          1           0       24.040000   20.060000   20.120000
     20          8           0       19.770000   23.220000   21.290000
     21          1           0       19.350000   23.450000   22.120000
     22          1           0       19.440000   22.350000   21.080000
     23          8           0       18.890000   19.580000   16.700000
     24          1           0       19.670000   19.330000   16.220000
     25          1           0       19.070000   19.320000   17.600000
     26          8           0       19.240000   20.550000   23.760000
     27          1           0       19.280000   19.620000   23.990000
     28          1           0       20.020000   20.690000   23.220000
     29          8           0       22.610000   17.440000   16.950000
     30          1           0       22.530000   17.870000   17.800000
     31          1           0       23.370000   17.850000   16.540000
     32          8           0       22.290000   23.230000   17.180000
     33          1           0       21.490000   23.180000   17.690000
     34          1           0       22.330000   24.140000   16.880000
     35          8           0       19.040000   15.320000   18.060000
     36          1           0       19.420000   14.440000   18.080000
     37          1           0       19.440000   15.760000   18.810000
     38          8           0       21.120000   25.500000   20.150000
     39          1           0       20.810000   24.620000   20.380000
     40          1           0       21.670000   25.760000   20.880000
     41          8           0       16.330000   22.620000   21.440000
     42          1           0       16.350000   23.270000   20.740000
     43          1           0       15.430000   22.290000   21.440000
     44          8           0       22.820000   15.810000   22.900000
     45          1           0       22.290000   16.540000   22.590000
     46          1           0       22.190000   15.170000   23.220000
     47          8           0       16.500000   19.280000   15.450000
     48          1           0       17.290000   19.500000   15.940000
     49          1           0       15.790000   19.690000   15.940000
     50          8           0       16.870000   21.320000   24.620000
     51          1           0       16.460000   20.460000   24.770000
     52          1           0       17.730000   21.120000   24.250000
     53          8           0       14.370000   19.620000   20.790000
     54          1           0       15.200000   19.850000   21.230000
     55          1           0       14.340000   20.200000   20.030000
     56          8           0       17.710000   23.260000   15.660000
     57          1           0       18.550000   23.200000   15.210000
     58          1           0       17.870000   22.900000   16.530000
     59          8           0       15.450000   18.910000   23.690000
     60          1           0       16.060000   18.970000   22.950000
     61          1           0       15.470000   17.990000   23.950000
     62          8           0       16.210000   15.960000   18.500000
     63          1           0       17.080000   16.240000   18.220000
     64          1           0       15.760000   15.730000   17.690000
     65          8           0       23.180000   18.410000   24.900000
     66          1           0       22.510000   18.530000   24.220000
     67          1           0       23.760000   17.740000   24.550000
     68          8           0       19.480000   18.250000   25.070000
     69          1           0       19.200000   17.950000   25.930000
     70          1           0       19.350000   17.490000   24.500000
     71          8           0       20.620000   18.680000   14.720000
     72          1           0       21.410000   19.190000   14.550000
     73          1           0       20.910000   17.960000   15.280000
     74          8           0       18.190000   23.780000   23.590000
     75          1           0       17.840000   24.480000   23.040000
     76          1           0       17.540000   23.080000   23.540000
     77          8           0       25.650000   20.410000   18.280000
     78          1           0       24.860000   20.740000   17.850000
     79          1           0       26.310000   20.390000   17.590000
     80          8           0       20.020000   22.330000   14.650000
     81          1           0       20.800000   22.290000   14.090000
     82          1           0       19.730000   21.420000   14.720000
     83          8           0       21.090000   20.950000   26.050000
     84          1           0       21.300000   20.340000   26.760000
     85          1           0       20.470000   20.470000   25.500000
     86          8           0       22.640000   20.480000   14.470000
     87          1           0       22.540000   21.220000   15.060000
     88          1           0       23.500000   20.120000   14.690000
     89          8           0       18.340000   17.270000   14.640000
     90          1           0       17.780000   17.680000   15.300000
     91          1           0       18.960000   17.960000   14.400000
     92          8           0       18.340000   25.290000   18.340000
     93          1           0       18.170000   25.300000   17.400000
     94          1           0       19.260000   25.550000   18.420000
     95          8           0       26.640000   19.260000   20.730000
     96          1           0       26.540000   19.050000   21.660000
     97          1           0       25.750000   19.380000   20.410000
     98          8           0       15.680000   25.030000   19.320000
     99          1           0       16.600000   24.810000   19.440000
    100          1           0       15.680000   25.760000   18.710000
    101          8           0       14.330000   17.000000   20.160000
    102          1           0       15.030000   16.780000   19.550000
    103          1           0       14.450000   17.940000   20.330000
    104          8           0       24.980000   16.570000   21.170000
    105          1           0       25.820000   16.380000   21.600000
    106          1           0       24.330000   16.150000   21.730000
    107          8           0       17.230000   14.370000   20.540000
    108          1           0       16.840000   14.830000   19.790000
    109          1           0       18.130000   14.200000   20.280000
    110          8           0       18.860000   15.700000   24.170000
    111          1           0       17.910000   15.790000   24.110000
    112          1           0       19.090000   15.030000   23.520000
    113          8           0       14.170000   21.740000   18.970000
    114          1           0       14.320000   22.470000   19.570000
    115          1           0       13.240000   21.540000   19.070000
    116          8           0       19.870000   23.300000   25.990000
    117          1           0       19.370000   23.340000   25.180000
    118          1           0       20.400000   22.510000   25.910000
    119          8           0       14.600000   20.900000   16.360000
    120          1           0       14.580000   21.410000   17.160000
    121          1           0       14.710000   21.550000   15.660000
    122          8           0       19.930000   13.420000   20.220000
    123          1           0       19.900000   12.490000   19.980000
    124          1           0       20.720000   13.750000   19.790000
    125          8           0       22.600000   15.440000   15.090000
    126          1           0       22.810000   15.950000   14.310000
    127          1           0       22.610000   16.080000   15.810000
    128          8           0       22.290000   13.890000   18.710000
    129          1           0       22.550000   13.040000   19.070000
    130          1           0       23.120000   14.370000   18.610000
    131          8           0       22.240000   25.590000   22.690000
    132          1           0       21.470000   25.690000   23.250000
    133          1           0       22.960000   25.430000   23.300000
    134          8           0       17.070000   25.680000   22.090000
    135          1           0       17.520000   26.000000   21.310000
    136          1           0       16.840000   26.470000   22.580000
    137          8           0       23.210000   22.740000   25.640000
    138          1           0       23.260000   23.200000   26.490000
    139          1           0       22.610000   22.020000   25.800000
    140          8           0       20.420000   27.000000   18.170000
    141          1           0       19.890000   27.740000   18.440000
    142          1           0       20.710000   26.600000   19.000000
    143          8           0       24.870000   20.790000   24.940000
    144          1           0       24.410000   19.960000   25.090000
    145          1           0       24.250000   21.460000   25.230000
    146          8           0       19.650000   13.610000   22.790000
    147          1           0       20.540000   13.340000   23.030000
    148          1           0       19.600000   13.480000   21.850000
    149          8           0       13.480000   20.910000   23.930000
    150          1           0       14.200000   20.290000   23.780000
    151          1           0       13.280000   20.820000   24.860000
    152          8           0       27.280000   22.590000   19.970000
    153          1           0       26.670000   21.890000   19.750000
    154          1           0       26.750000   23.210000   20.480000
    155          8           0       16.250000   15.850000   24.170000
    156          1           0       15.770000   15.050000   24.370000
    157          1           0       16.480000   16.220000   25.020000
    158          8           0       25.690000   24.230000   21.290000
    159          1           0       25.700000   23.610000   22.010000
    160          1           0       24.940000   24.800000   21.460000
    161          8           0       25.020000   18.730000   15.180000
    162          1           0       25.360000   18.510000   14.320000
    163          1           0       25.390000   18.060000   15.760000
    164          8           0       20.220000   14.920000   13.990000
    165          1           0       19.670000   15.570000   14.430000
    166          1           0       21.100000   15.070000   14.360000
    167          8           0       13.620000   22.580000   21.920000
    168          1           0       12.780000   22.920000   21.600000
    169          1           0       13.380000   22.000000   22.650000
    170          8           0       22.770000   24.050000   14.030000
    171          1           0       22.230000   24.800000   13.780000
    172          1           0       22.920000   24.170000   14.970000
    173          8           0       24.850000   14.130000   19.110000
    174          1           0       24.810000   13.990000   20.050000
    175          1           0       25.110000   15.050000   19.010000
    176          8           0       17.230000   22.730000   26.960000
    177          1           0       17.090000   22.630000   26.020000
    178          1           0       17.920000   23.390000   27.030000
    179          8           0       22.510000   25.880000   16.610000
    180          1           0       21.830000   26.400000   17.030000
    181          1           0       23.210000   26.500000   16.420000
    182          8           0       16.430000   15.620000   14.180000
    183          1           0       16.370000   15.770000   13.240000
    184          1           0       17.090000   16.250000   14.480000
    185          8           0       14.810000   24.240000   23.820000
    186          1           0       15.350000   24.820000   23.290000
    187          1           0       14.510000   23.560000   23.210000
    188          8           0       26.100000   17.160000   17.190000
    189          1           0       26.690000   17.860000   17.480000
    190          1           0       26.350000   16.400000   17.730000
    191          8           0       14.090000   15.130000   22.290000
    192          1           0       15.020000   15.230000   22.490000
    193          1           0       13.930000   15.740000   21.570000
    194          8           0       26.590000   22.180000   23.140000
    195          1           0       27.050000   22.860000   23.630000
    196          1           0       26.060000   21.720000   23.800000
    197          8           0       12.790000   17.460000   17.950000
    198          1           0       13.140000   17.290000   18.830000
    199          1           0       13.550000   17.370000   17.380000
    200          8           0       16.950000   12.820000   22.650000
    201          1           0       17.840000   12.630000   22.950000
    202          1           0       17.070000   13.410000   21.900000
    203          8           0       18.180000   18.280000   27.480000
    204          1           0       17.990000   19.180000   27.730000
    205          1           0       17.550000   18.080000   26.790000
    206          8           0       18.940000   20.590000   12.490000
    207          1           0       18.610000   20.490000   11.600000
[...]
   Z335      33.27808   0.00774   0.00000   0.00446   0.00447  33.28255
   X336      27.62780  -0.01047   0.00000  -0.00913  -0.00913  27.61867
   Y336      52.55328   0.00482   0.00000  -0.00066  -0.00076  52.55252
   Z336      32.99462  -0.00204   0.00000  -0.00070  -0.00067  32.99395
   X337      29.61201   0.00191   0.00000   0.00147   0.00136  29.61336
   Y337      51.00371  -0.00147   0.00000  -0.00179  -0.00199  51.00172
   Z337      31.63402  -0.00719   0.00000  -0.00648  -0.00649  31.62752
   X338      30.25452   0.02002   0.00000   0.01565   0.01614  30.27066
   Y338      53.72491   0.01063   0.00000   0.00357   0.00382  53.72874
   Z338      39.85432   0.00343   0.00000   0.00078   0.00057  39.85489
   X339      29.17737  -0.00932   0.00000  -0.00692  -0.00652  29.17085
   Y339      54.15955  -0.00288   0.00000  -0.00536  -0.00517  54.15438
   Z339      38.47482  -0.00623   0.00000  -0.00159  -0.00176  38.47307
   X340      29.57421  -0.01288   0.00000  -0.01418  -0.01366  29.56055
   Y340      52.19424  -0.01214   0.00000  -0.00709  -0.00680  52.18744
   Z340      40.51573  -0.00178   0.00000  -0.00708  -0.00716  40.50856
   X341      20.99486  -0.01764   0.00000  -0.02159  -0.02168  20.97318
   Y341      36.81187   0.01278   0.00000   0.00147   0.00153  36.81340
   Z341      34.48750   0.00150   0.00000  -0.00823  -0.00686  34.48065
   X342      21.56178   0.02163   0.00000   0.03048   0.03035  21.59213
   Y342      35.14891  -0.01957   0.00000  -0.01224  -0.01221  35.13670
   Z342      34.03397  -0.00252   0.00000   0.00212   0.00355  34.03752
   X343      19.57756  -0.00381   0.00000  -0.00832  -0.00833  19.56923
   Y343      36.50951  -0.00226   0.00000  -0.00623  -0.00609  36.50342
   Z343      35.58354   0.00196   0.00000   0.00370   0.00519  35.58874
   X344      41.15824  -0.01311   0.00000  -0.00746  -0.00846  41.14978
   Y344      37.62445   0.00229   0.00000   0.00346   0.00255  37.62700
   Z344      21.25942   0.01209   0.00000   0.00875   0.00866  21.26808
   X345      41.81964   0.00191   0.00000  -0.00218  -0.00324  41.81640
   Y345      36.07487  -0.00915   0.00000  -0.00408  -0.00504  36.06983
   Z345      20.63581  -0.00732   0.00000  -0.00751  -0.00755  20.62825
   X346      42.10310   0.00732   0.00000   0.00552   0.00448  42.10758
   Y346      38.90946   0.01035   0.00000   0.00984   0.00887  38.91833
   Z346      20.40904  -0.00342   0.00000   0.00164   0.00142  20.41046
   X347      35.05442   0.01104   0.00000   0.00563   0.00582  35.06024
   Y347      55.33118   0.00066   0.00000  -0.00537  -0.00544  55.32575
   Z347      35.14891  -0.00724   0.00000  -0.00291  -0.00355  35.14536
   X348      34.03397  -0.01278   0.00000  -0.01297  -0.01273  34.02124
   Y348      54.23514  -0.00670   0.00000  -0.00305  -0.00304  54.23210
   Z348      36.15046   0.01018   0.00000   0.00978   0.00928  36.15974
   X349      33.97728  -0.00035   0.00000   0.00292   0.00309  33.98037
   Y349      56.74848   0.00079   0.00000  -0.00119  -0.00126  56.74721
   Z349      34.78986   0.00008   0.00000   0.00061  -0.00003  34.78983
   X350      49.32185  -0.00023   0.00000  -0.00361  -0.00378  49.31807
   Y350      49.32185  -0.00973   0.00000  -0.01135  -0.01182  49.31003
   Z350      31.04820  -0.01601   0.00000  -0.00454  -0.00584  31.04236
   X351      48.22581   0.00013   0.00000   0.00356   0.00337  48.22918
   Y351      50.70135   0.00287   0.00000   0.00147   0.00100  50.70235
   Z351      30.61356  -0.00142   0.00000  -0.00218  -0.00349  30.61008
   X352      49.37854  -0.00165   0.00000  -0.00273  -0.00277  49.37577
   Y352      49.35965   0.00452   0.00000   0.00684   0.00648  49.36613
   Z352      32.86234   0.02081   0.00000   0.01695   0.01563  32.87797
   X353      30.89702   0.00714   0.00000   0.00505   0.00408  30.90110
   Y353      34.26073  -0.01885   0.00000  -0.01274  -0.01349  34.24725
   Z353      22.14759  -0.00260   0.00000  -0.00329  -0.00247  22.14512
   X354      29.78208  -0.00907   0.00000  -0.00306  -0.00397  29.77811
   Y354      35.50795   0.01157   0.00000   0.00563   0.00494  35.51290
   Z354      22.82789   0.00765   0.00000   0.00609   0.00692  22.83481
   X355      31.87968   0.00471   0.00000   0.00608   0.00502  31.88470
   Y355      35.14891   0.00248   0.00000   0.00043  -0.00039  35.14852
   Z355      20.91927  -0.00399   0.00000  -0.00316  -0.00246  20.91681
   X356      48.18802   0.00874   0.00000   0.00876   0.00840  48.19642
   Y356      23.05466  -0.01929   0.00000  -0.02186  -0.02222  23.03244
   Z356      32.82454  -0.01074   0.00000  -0.00513  -0.00490  32.81965
   X357      47.22426  -0.00168   0.00000   0.00364   0.00338  47.22764
   Y357      23.94283   0.01012   0.00000   0.00784   0.00757  23.95040
   Z357      34.07176   0.00380   0.00000  -0.00565  -0.00540  34.06636
   X358      49.75649  -0.00411   0.00000  -0.00592  -0.00627  49.75022
   Y358      23.98062   0.00282   0.00000   0.00325   0.00288  23.98350
   Z358      32.71116   0.00237   0.00000   0.00179   0.00186  32.71302
   X359      48.35809   0.02341   0.00000   0.01536   0.01472  48.37281
   Y359      25.75697   0.01129   0.00000   0.00937   0.00876  25.76573
   Z359      28.28920  -0.01520   0.00000  -0.00919  -0.00912  28.28008
   X360      46.86521  -0.01717   0.00000  -0.01266  -0.01330  46.85191
   Y360      26.75852   0.00560   0.00000   0.00214   0.00155  26.76008
   Z360      28.27030   0.00303   0.00000   0.00338   0.00350  28.27381
   X361      47.94235  -0.01062   0.00000  -0.00891  -0.00950  47.93285
   Y361      24.33967  -0.01430   0.00000  -0.00500  -0.00554  24.33413
   Z361      29.30965   0.01361   0.00000   0.00823   0.00841  29.31806
   X362      48.15022   0.00995   0.00000   0.00682   0.00619  48.15642
   Y362      46.73293   0.01241   0.00000   0.01080   0.01002  46.74295
   Z362      25.11446  -0.00964   0.00000  -0.00345  -0.00453  25.10993
   X363      49.18957   0.00425   0.00000   0.00417   0.00364  49.19322
   Y363      46.48726  -0.00460   0.00000  -0.00609  -0.00680  46.48046
   Z363      26.56955   0.00686   0.00000   0.00587   0.00473  26.57428
   X364      46.65734  -0.01492   0.00000  -0.01050  -0.01111  46.64622
   Y364      45.76917  -0.00566   0.00000   0.00150   0.00076  45.76992
   Z364      25.43571   0.00254   0.00000   0.00036  -0.00056  25.43515
   X365      36.35833  -0.00187   0.00000   0.00413   0.00472  36.36305
   Y365      21.10824   0.00076   0.00000   0.00080   0.00136  21.10960
   Z365      46.75182   0.01319   0.00000   0.00909   0.01027  46.76209
   X366      36.81187  -0.00088   0.00000  -0.00512  -0.00457  36.80730
   Y366      22.63892   0.00952   0.00000   0.00808   0.00859  22.64751
   Z366      45.90145  -0.00595   0.00000  -0.00588  -0.00483  45.89662
   X367      37.09532   0.00195   0.00000  -0.00217  -0.00167  37.09366
   Y367      19.80433  -0.00747   0.00000  -0.00532  -0.00482  19.79951
   Z367      45.75027  -0.00880   0.00000  -0.00947  -0.00828  45.74199
   X368      30.61356   0.00254   0.00000   0.00256   0.00185  30.61541
   Y368      24.18849  -0.01400   0.00000  -0.00493  -0.00536  24.18313
   Z368      27.68449   0.01166   0.00000   0.00436   0.00576  27.69025
   X369      29.53642  -0.00491   0.00000  -0.00265  -0.00345  29.53297
   Y369      23.48930  -0.00326   0.00000  -0.00271  -0.00320  23.48610
   Z369      26.41837  -0.00665   0.00000  -0.00587  -0.00435  26.41402
   X370      30.84033   0.00061   0.00000  -0.00098  -0.00170  30.83863
   Y370      25.90815   0.02238   0.00000   0.01840   0.01794  25.92609
   Z370      27.19316  -0.00431   0.00000  -0.00135  -0.00005  27.19310
   X371      44.63533  -0.01616   0.00000  -0.01115  -0.01116  44.62417
   Y371      21.80744   0.01263   0.00000   0.00801   0.00799  21.81543
   Z371      37.92680   0.00497   0.00000   0.00842   0.00898  37.93578
   X372      46.22270   0.01320   0.00000   0.01055   0.01059  46.23329
   Y372      22.35546   0.00197   0.00000   0.00083   0.00082  22.35628
   Z372      38.58821   0.00350   0.00000   0.00115   0.00156  38.58976
   X373      44.91879   0.00283   0.00000   0.00042   0.00034  44.91913
   Y373      20.10669  -0.01187   0.00000  -0.00375  -0.00381  20.10287
   Z373      37.41658  -0.00799   0.00000  -0.01025  -0.00962  37.40695
   X374      24.81210  -0.00099   0.00000  -0.00773  -0.00686  24.80524
   Y374      30.19782  -0.00547   0.00000  -0.00518  -0.00435  30.19347
   Z374      49.11398  -0.01046   0.00000  -0.01004  -0.00856  49.10542
   X375      23.98062  -0.00420   0.00000  -0.00329  -0.00232  23.97831
   Y375      30.85923   0.00460   0.00000   0.00251   0.00343  30.86266
   Z375      50.56907   0.00875   0.00000   0.00441   0.00591  50.57498
   X376      26.47506  -0.00136   0.00000  -0.00374  -0.00286  26.47220
   Y376      30.93482  -0.00568   0.00000  -0.01201  -0.01120  30.92362
   Z376      49.15178  -0.00044   0.00000  -0.00262  -0.00130  49.15047
   X377      36.32054   0.00630   0.00000   0.00841   0.00967  36.33021
   Y377      29.97106  -0.00479   0.00000  -0.00442  -0.00340  29.96766
   Z377      54.85875   0.02261   0.00000   0.01447   0.01515  54.87390
   X378      36.09377  -0.00425   0.00000  -0.00647  -0.00531  36.08846
   Y378      28.79943  -0.00562   0.00000  -0.00159  -0.00065  28.79877
   Z378      53.49815  -0.01254   0.00000  -0.00839  -0.00762  53.49052
   X379      36.45282  -0.00575   0.00000  -0.01248  -0.01125  36.44157
   Y379      31.57732   0.01271   0.00000   0.00729   0.00825  31.58558
   Z379      54.06506  -0.00867   0.00000  -0.00548  -0.00490  54.06017
   X380      46.71403  -0.00757   0.00000  -0.00749  -0.00682  46.70721
   Y380      25.92704   0.00528   0.00000   0.00212   0.00258  25.92962
   Z380      47.07308  -0.00949   0.00000  -0.00415  -0.00397  47.06911
   X381      47.79117   0.00642   0.00000   0.00317   0.00385  47.79502
   Y381      24.52865  -0.00796   0.00000  -0.00468  -0.00421  24.52444
   Z381      47.46992   0.00469   0.00000   0.00414   0.00432  47.47424
   X382      46.44947  -0.00167   0.00000  -0.00298  -0.00219  46.44728
   Y382      26.75852   0.00202   0.00000  -0.00014   0.00041  26.75894
   Z382      48.66045   0.00971   0.00000   0.00863   0.00878  48.66923
   X383      49.56752   0.01159   0.00000   0.00748   0.00864  49.57616
   Y383      42.21648   0.01076   0.00000   0.00758   0.00824  42.22473
   Z383      51.26827  -0.00212   0.00000   0.00140   0.00047  51.26874
   X384      48.11243  -0.00733   0.00000  -0.00379  -0.00257  48.10986
   Y384      41.76295  -0.00688   0.00000  -0.00739  -0.00666  41.75628
   Z384      52.23203   0.00289   0.00000   0.00032  -0.00048  52.23155
   X385      49.86987  -0.00694   0.00000  -0.01207  -0.01100  49.85887
   Y385      40.78029  -0.00291   0.00000  -0.00042   0.00017  40.78046
   Z385      50.19113  -0.00232   0.00000  -0.00189  -0.00276  50.18837
         Item               Value     Threshold  Converged?
 Maximum Force            0.045954     0.000450     NO 
 RMS     Force            0.010484     0.000300     NO 
 Maximum Displacement     0.041373     0.001800     NO 
 RMS     Displacement     0.008824     0.001200     NO 
 Predicted change in Energy=-7.225977D-02
 GradGradGradGradGradGradGradGradGradGradGradGradGradGradGradGradGradGrad

 Leave Link  103 at Sat May  5 07:39:49 2018, MaxMem= 14763950080 cpu:      2824.3
 (Enter /cm/shared/gaussian/g09.e01/intel64-sandybridge/g09/l9999.exe)
 1\1\GINC-POPLE07\Force\RPBE1PBE\CC-pVDZ\Br1H256O128(1-)\M.PELUSO\05-Ma
 y-2018\0\\#p PBE1PBE/cc-pvDZ force Counterpoise=2 noSymm\\forces on ch
 loride comput - NWATER: 128\\-1,1\Br,20.,20.,20.\O,19.51,22.86,18.36\H
 ,19.63,21.96,18.66\H,19.31,23.35,19.16\O,22.41,20.54,17.7\H,22.35,21.4
 5,17.39\H,21.71,20.46,18.34\O,21.8,18.48,22.46\H,21.22,19.05,21.94\H,2
 2.67,18.86,22.36\O,17.22,19.77,21.86\H,17.49,20.61,22.24\H,17.99,19.46
 ,21.39\O,20.38,16.62,20.15\H,20.44,16.69,21.1\H,20.59,17.5,19.83\O,23.
 38,19.87,20.79\H,22.55,20.14,20.4\H,24.04,20.06,20.12\O,19.77,23.22,21
 .29\H,19.35,23.45,22.12\H,19.44,22.35,21.08\O,18.89,19.58,16.7\H,19.67
 ,19.33,16.22\H,19.07,19.32,17.6\O,19.24,20.55,23.76\H,19.28,19.62,23.9
 9\H,20.02,20.69,23.22\O,22.61,17.44,16.95\H,22.53,17.87,17.8\H,23.37,1
 7.85,16.54\O,22.29,23.23,17.18\H,21.49,23.18,17.69\H,22.33,24.14,16.88
 \O,19.04,15.32,18.06\H,19.42,14.44,18.08\H,19.44,15.76,18.81\O,21.12,2
 5.5,20.15\H,20.81,24.62,20.38\H,21.67,25.76,20.88\O,16.33,22.62,21.44\
 H,16.35,23.27,20.74\H,15.43,22.29,21.44\O,22.82,15.81,22.9\H,22.29,16.
 54,22.59\H,22.19,15.17,23.22\O,16.5,19.28,15.45\H,17.29,19.5,15.94\H,1
 5.79,19.69,15.94\O,16.87,21.32,24.62\H,16.46,20.46,24.77\H,17.73,21.12
 ,24.25\O,14.37,19.62,20.79\H,15.2,19.85,21.23\H,14.34,20.2,20.03\O,17.
 71,23.26,15.66\H,18.55,23.2,15.21\H,17.87,22.9,16.53\O,15.45,18.91,23.
 69\H,16.06,18.97,22.95\H,15.47,17.99,23.95\O,16.21,15.96,18.5\H,17.08,
 16.24,18.22\H,15.76,15.73,17.69\O,23.18,18.41,24.9\H,22.51,18.53,24.22
 \H,23.76,17.74,24.55\O,19.48,18.25,25.07\H,19.2,17.95,25.93\H,19.35,17
 .49,24.5\O,20.62,18.68,14.72\H,21.41,19.19,14.55\H,20.91,17.96,15.28\O
 ,18.19,23.78,23.59\H,17.84,24.48,23.04\H,17.54,23.08,23.54\O,25.65,20.
 41,18.28\H,24.86,20.74,17.85\H,26.31,20.39,17.59\O,20.02,22.33,14.65\H
 ,20.8,22.29,14.09\H,19.73,21.42,14.72\O,21.09,20.95,26.05\H,21.3,20.34
 ,26.76\H,20.47,20.47,25.5\O,22.64,20.48,14.47\H,22.54,21.22,15.06\H,23
 .5,20.12,14.69\O,18.34,17.27,14.64\H,17.78,17.68,15.3\H,18.96,17.96,14
 .4\O,18.34,25.29,18.34\H,18.17,25.3,17.4\H,19.26,25.55,18.42\O,26.64,1
 9.26,20.73\H,26.54,19.05,21.66\H,25.75,19.38,20.41\O,15.68,25.03,19.32
 \H,16.6,24.81,19.44\H,15.68,25.76,18.71\O,14.33,17.,20.16\H,15.03,16.7
 8,19.55\H,14.45,17.94,20.33\O,24.98,16.57,21.17\H,25.82,16.38,21.6\H,2
 4.33,16.15,21.73\O,17.23,14.37,20.54\H,16.84,14.83,19.79\H,18.13,14.2,
 20.28\O,18.86,15.7,24.17\H,17.91,15.79,24.11\H,19.09,15.03,23.52\O,14.
 17,21.74,18.97\H,14.32,22.47,19.57\H,13.24,21.54,19.07\O,19.87,23.3,25
 .99\H,19.37,23.34,25.18\H,20.4,22.51,25.91\O,14.6,20.9,16.36\H,14.58,2
 1.41,17.16\H,14.71,21.55,15.66\O,19.93,13.42,20.22\H,19.9,12.49,19.98\
 H,20.72,13.75,19.79\O,22.6,15.44,15.09\H,22.81,15.95,14.31\H,22.61,16.
 08,15.81\O,22.29,13.89,18.71\H,22.55,13.04,19.07\H,23.12,14.37,18.61\O
 ,22.24,25.59,22.69\H,21.47,25.69,23.25\H,22.96,25.43,23.3\O,17.07,25.6
 8,22.09\H,17.52,26.,21.31\H,16.84,26.47,22.58\O,23.21,22.74,25.64\H,23
 .26,23.2,26.49\H,22.61,22.02,25.8\O,20.42,27.,18.17\H,19.89,27.74,18.4
 4\H,20.71,26.6,19.\O,24.87,20.79,24.94\H,24.41,19.96,25.09\H,24.25,21.
 46,25.23\O,19.65,13.61,22.79\H,20.54,13.34,23.03\H,19.6,13.48,21.85\O,
 13.48,20.91,23.93\H,14.2,20.29,23.78\H,13.28,20.82,24.86\O,27.28,22.59
 ,19.97\H,26.67,21.89,19.75\H,26.75,23.21,20.48\O,16.25,15.85,24.17\H,1
 5.77,15.05,24.37\H,16.48,16.22,25.02\O,25.69,24.23,21.29\H,25.7,23.61,
 22.01\H,24.94,24.8,21.46\O,25.02,18.73,15.18\H,25.36,18.51,14.32\H,25.
 39,18.06,15.76\O,20.22,14.92,13.99\H,19.67,15.57,14.43\H,21.1,15.07,14
 .36\O,13.62,22.58,21.92\H,12.78,22.92,21.6\H,13.38,22.,22.65\O,22.77,2
 4.05,14.03\H,22.23,24.8,13.78\H,22.92,24.17,14.97\O,24.85,14.13,19.11\
 H,24.81,13.99,20.05\H,25.11,15.05,19.01\O,17.23,22.73,26.96\H,17.09,22
 .63,26.02\H,17.92,23.39,27.03\O,22.51,25.88,16.61\H,21.83,26.4,17.03\H
 ,23.21,26.5,16.42\O,16.43,15.62,14.18\H,16.37,15.77,13.24\H,17.09,16.2
 5,14.48\O,14.81,24.24,23.82\H,15.35,24.82,23.29\H,14.51,23.56,23.21\O,
 26.1,17.16,17.19\H,26.69,17.86,17.48\H,26.35,16.4,17.73\O,14.09,15.13,
 22.29\H,15.02,15.23,22.49\H,13.93,15.74,21.57\O,26.59,22.18,23.14\H,27
 .05,22.86,23.63\H,26.06,21.72,23.8\O,12.79,17.46,17.95\H,13.14,17.29,1
 8.83\H,13.55,17.37,17.38\O,16.95,12.82,22.65\H,17.84,12.63,22.95\H,17.
 07,13.41,21.9\O,18.18,18.28,27.48\H,17.99,19.18,27.73\H,17.55,18.08,26
 .79\O,18.94,20.59,12.49\H,18.61,20.49,11.6\H,19.69,20.,12.53\O,25.66,2
 3.27,16.37\H,26.27,23.16,17.1\H,25.62,24.22,16.23\O,22.4,18.84,27.61\H
 ,21.6,18.31,27.56\H,22.87,18.64,26.8\O,18.79,26.18,15.74\H,19.45,26.73
 ,16.16\H,18.15,26.81,15.4\O,17.24,26.05,25.33\H,17.78,25.35,24.95\H,16
 .35,25.69,25.34\O,25.28,16.61,24.34\H,25.58,16.68,25.25\H,25.03,15.69,
 24.24\O,26.81,18.54,23.54\H,26.28,17.8,23.82\H,26.6,19.24,24.16\O,20.5
 7,26.25,25.25\H,19.9,26.78,25.68\H,20.41,25.36,25.56\O,23.32,27.82,19.
 53\H,23.66,28.38,20.23\H,22.59,27.36,19.93\O,14.66,15.74,16.03\H,14.23
 ,16.34,15.43\H,15.43,15.43,15.56\O,21.91,12.52,16.13\H,20.98,12.7,15.9
 5\H,22.17,13.2,16.75\O,11.96,18.83,22.52\H,12.5,19.49,22.95\H,12.51,18
 .49,21.82\O,28.52,18.71,18.68\H,27.74,18.83,19.23\H,28.59,19.53,18.18\
 O,26.04,21.73,14.13\H,25.61,22.14,14.89\H,26.48,20.97,14.5\O,12.96,23.
 96,16.53\H,12.88,24.1,15.59\H,13.89,23.78,16.67\O,16.68,25.26,13.67\H,
 17.21,24.94,12.94\H,16.97,24.75,14.42\O,13.48,25.82,20.85\H,12.84,25.1
 1,20.91\H,14.22,25.43,20.38\O,22.11,13.22,23.63\H,22.11,12.26,23.62\H,
 22.82,13.45,24.23\O,18.23,23.7,12.31\H,18.38,22.85,12.73\H,17.92,23.48
 ,11.43\O,19.78,17.41,11.81\H,20.55,16.94,12.15\H,19.14,17.37,12.52\O,1
 8.61,14.39,26.76\H,18.99,14.67,25.93\H,17.71,14.14,26.54\O,25.05,13.43
 ,21.96\H,25.27,13.37,22.89\H,24.1,13.35,21.94\O,14.56,19.96,12.89\H,14
 .96,20.38,13.65\H,14.09,20.67,12.44\O,24.18,21.56,12.21\H,23.49,21.19,
 12.77\H,24.87,21.82,12.83\O,16.43,11.87,19.3\H,16.44,12.57,19.95\H,16.
 37,11.06,19.82\O,27.9,16.79,21.76\H,27.54,17.54,22.24\H,28.53,17.17,21
 .15\O,19.96,27.84,22.97\H,19.45,28.35,23.6\H,20.67,27.46,23.49\O,25.72
 ,26.59,19.25\H,24.79,26.83,19.3\H,25.87,26.05,20.03\O,20.28,25.66,13.1
 3\H,19.59,25.35,12.55\H,19.84,25.82,13.97\O,24.72,25.7,23.96\H,25.59,2
 6.04,23.78\H,24.71,25.57,24.91\O,14.73,21.42,27.01\H,15.51,21.96,26.92
 \H,14.31,21.48,26.15\O,29.04,20.93,22.47\H,28.1,21.04,22.34\H,29.17,19
 .98,22.49\O,14.4,22.78,14.22\H,14.94,23.46,13.81\H,13.71,22.61,13.58\O
 ,12.09,19.56,15.29\H,12.9,20.07,15.23\H,11.84,19.61,16.21\O,23.1,16.67
 ,12.71\H,23.07,17.34,12.02\H,23.11,15.84,12.24\O,13.31,17.49,14.39\H,1
 4.1,17.94,14.07\H,12.73,18.2,14.65\O,23.9,28.04,22.27\H,23.53,28.56,22
 .99\H,24.06,27.18,22.64\O,18.96,12.63,14.8\H,18.01,12.67,14.8\H,19.24,
 13.44,14.38\O,15.63,16.78,26.88\H,15.01,17.5,27.\H,15.71,16.38,27.75\O
 ,18.22,20.84,28.9\H,18.99,21.3,29.23\H,17.78,21.49,28.35\O,21.42,22.97
 ,11.01\H,20.93,22.41,11.62\H,22.31,22.98,11.35\O,11.56,22.,18.59\H,11.
 17,21.14,18.43\H,11.8,22.32,17.72\O,27.77,20.43,15.91\H,28.29,19.66,15
 .7\H,28.37,21.16,15.79\O,15.31,27.17,17.61\H,14.62,27.81,17.46\H,15.67
 ,26.99,16.74\O,16.01,28.43,21.09\H,15.44,28.66,20.36\H,15.65,27.62,21.
 44\O,11.11,19.48,18.25\H,11.41,18.6,18.01\H,10.36,19.32,18.83\O,21.78,
 19.91,11.25\H,22.13,19.09,10.92\H,22.28,20.59,10.8\O,18.55,29.28,18.6\
 H,18.01,28.7,19.13\H,17.98,30.03,18.41\O,26.1,26.1,16.43\H,25.52,26.83
 ,16.2\H,26.13,26.12,17.39\O,16.35,18.13,11.72\H,15.76,18.79,12.08\H,16
 .87,18.6,11.07\O,25.5,12.2,17.37\H,24.99,12.67,18.03\H,26.33,12.69,17.
 31\O,25.59,13.63,14.97\H,24.8,14.16,14.96\H,25.37,12.88,15.51\O,25.48,
 24.73,13.29\H,26.03,24.6,14.06\H,24.69,24.22,13.46\O,19.24,11.17,24.74
 \H,19.48,11.98,24.29\H,19.63,10.48,24.21\O,16.2,12.8,14.65\H,15.63,12.
 43,13.98\H,16.32,13.71,14.39\O,23.62,11.54,20.07\H,24.46,11.83,20.42\H
 ,23.77,10.64,19.8\O,13.13,15.98,25.99\H,12.69,16.33,26.76\H,14.01,16.3
 7,26.01\O,19.22,15.86,29.03\H,19.1,15.24,28.31\H,19.29,16.71,28.61\O,2
 4.72,13.72,24.91\H,25.29,12.98,25.12\H,24.58,14.16,25.75\O,26.23,22.34
 ,27.13\H,25.46,22.1,27.64\H,26.39,21.58,26.56\\Version=ES64L-G09RevE.0
 1\HF=-9773.3969224\RMSD=1.705e-09\RMSF=1.048e-02\Dipole=5.4627821,6.11
 29341,8.2185974\Quadrupole=-151.142488,-3.4573997,154.5998877,-1152.00
 37617,-772.0525639,-926.6742884\PG=C01 [X(Br1H256O128)]\\@


 Luck is a matter of preparation meeting opportunity.
                                    -- Oprah Winfrey
 Job cpu time:       6 days 11 hours 43 minutes 51.1 seconds.
 File lengths (MBytes):  RWF=   7285 Int=      0 D2E=      0 Chk=   2411 Scr=      1
 Normal termination of Gaussian 09 at Sat May  5 07:40:20 2018.
