 Entering Gaussian System, Link 0=/cm/shared/gaussian/g09.e01/intel64-sandybridge/g09/g09
 Initial command:
 /cm/shared/gaussian/g09.e01/intel64-sandybridge/g09/l1.exe "/local/scratch/m.peluso/128_wat/Gau-44399.inp" -scrdir="/local/scratch/m.peluso/128_wat/"
 Entering Link 1 = /cm/shared/gaussian/g09.e01/intel64-sandybridge/g09/l1.exe PID=     44400.
  
 Copyright (c) 1988,1990,1992,1993,1995,1998,2003,2009,2015,
            Gaussian, Inc.  All Rights Reserved.
  
 This is part of the Gaussian(R) 09 program.  It is based on
 the Gaussian(R) 03 system (copyright 2003, Gaussian, Inc.),
 the Gaussian(R) 98 system (copyright 1998, Gaussian, Inc.),
 the Gaussian(R) 94 system (copyright 1995, Gaussian, Inc.),
 the Gaussian 92(TM) system (copyright 1992, Gaussian, Inc.),
 the Gaussian 90(TM) system (copyright 1990, Gaussian, Inc.),
 the Gaussian 88(TM) system (copyright 1988, Gaussian, Inc.),
 the Gaussian 86(TM) system (copyright 1986, Carnegie Mellon
 University), and the Gaussian 82(TM) system (copyright 1983,
 Carnegie Mellon University). Gaussian is a federally registered
 trademark of Gaussian, Inc.
  
 This software contains proprietary and confidential information,
 including trade secrets, belonging to Gaussian, Inc.
  
 This software is provided under written license and may be
 used, copied, transmitted, or stored only in accord with that
 written license.
  
 The following legend is applicable only to US Government
 contracts under FAR:
  
                    RESTRICTED RIGHTS LEGEND
  
 Use, reproduction and disclosure by the US Government is
 subject to restrictions as set forth in subparagraphs (a)
 and (c) of the Commercial Computer Software - Restricted
 Rights clause in FAR 52.227-19.
  
 Gaussian, Inc.
 340 Quinnipiac St., Bldg. 40, Wallingford CT 06492
  
  
 ---------------------------------------------------------------
 Warning -- This program may not be used in any manner that
 competes with the business of Gaussian, Inc. or will provide
 assistance to any competitor of Gaussian, Inc.  The licensee
 of this program is prohibited from giving any competitor of
 Gaussian, Inc. access to this program.  By using this program,
 the user acknowledges that Gaussian, Inc. is engaged in the
 business of creating and licensing software in the field of
 computational chemistry and represents and warrants to the
 licensee that it is not a competitor of Gaussian, Inc. and that
 it will not use this program in any manner prohibited above.
 ---------------------------------------------------------------
  

 Cite this work as:
 Gaussian 09, Revision E.01,
 M. J. Frisch, G. W. Trucks, H. B. Schlegel, G. E. Scuseria, 
 M. A. Robb, J. R. Cheeseman, G. Scalmani, V. Barone, B. Mennucci, 
 G. A. Petersson, H. Nakatsuji, M. Caricato, X. Li, H. P. Hratchian, 
 A. F. Izmaylov, J. Bloino, G. Zheng, J. L. Sonnenberg, M. Hada, 
 M. Ehara, K. Toyota, R. Fukuda, J. Hasegawa, M. Ishida, T. Nakajima, 
 Y. Honda, O. Kitao, H. Nakai, T. Vreven, J. A. Montgomery, Jr., 
 J. E. Peralta, F. Ogliaro, M. Bearpark, J. J. Heyd, E. Brothers, 
 K. N. Kudin, V. N. Staroverov, T. Keith, R. Kobayashi, J. Normand, 
 K. Raghavachari, A. Rendell, J. C. Burant, S. S. Iyengar, J. Tomasi, 
 M. Cossi, N. Rega, J. M. Millam, M. Klene, J. E. Knox, J. B. Cross, 
 V. Bakken, C. Adamo, J. Jaramillo, R. Gomperts, R. E. Stratmann, 
 O. Yazyev, A. J. Austin, R. Cammi, C. Pomelli, J. W. Ochterski, 
 R. L. Martin, K. Morokuma, V. G. Zakrzewski, G. A. Voth, 
 P. Salvador, J. J. Dannenberg, S. Dapprich, A. D. Daniels, 
 O. Farkas, J. B. Foresman, J. V. Ortiz, J. Cioslowski, 
 and D. J. Fox, Gaussian, Inc., Wallingford CT, 2013.
 
 ******************************************
 Gaussian 09:  ES64L-G09RevE.01 30-Nov-2015
                 6-May-2018 
 ******************************************
 %Mem=110GB
 %NProcShared=64
 Will use up to   64 processors via shared memory.
 %chk=snap59.chk
 ----------------------------------------------
 #p PBE1PBE/cc-pvDZ force Counterpoise=2 noSymm
 ----------------------------------------------
 1/10=7,30=1,38=1,62=2/1,3;
 2/12=2,15=1,17=6,18=5,40=1/2;
 1/10=7,30=1,38=1,53=2,62=2,63=101/22;
 3/5=16,11=2,16=1,25=1,30=1,71=1,74=-13/1,2,3;
 4//1;
 5/5=2,38=5/2;
 6/7=2,8=2,9=2,10=2,28=1/1;
 7/7=1,29=1,30=1,33=-1/1,2,3,16;
 1/10=7,30=1,53=2,62=2,63=101/22;
 3/5=7,6=11,11=2,16=1,25=1,30=1,71=1,74=-13,82=7/1,2,3;
 4//1;
 5/5=2,38=5/2;
 6/7=2,8=2,9=2,10=2,28=1/1;
 7/7=1,29=1,30=1,33=-1/1,2,3,16;
 1/10=7,30=1,53=2,62=2,63=101/22(-5);
 7/9=1,29=1,44=-1/16;
 1/10=7,30=1,62=2/3;
 99//99;
 Leave Link    1 at Sun May  6 20:19:00 2018, MaxMem= 14763950080 cpu:         4.4
 (Enter /cm/shared/gaussian/g09.e01/intel64-sandybridge/g09/l101.exe)
 ---------------------------------------
 forces on chloride comput - NWATER: 128
 ---------------------------------------
 Symbolic Z-matrix:
 Charge = -1 Multiplicity = 1 in supermolecule
 Charge = -1 Multiplicity = 1 in fragment      1.
 Charge =  0 Multiplicity = 1 in fragment      2.
 Br(Fragment=1)        20.       20.       20. 
 O(Fragment=2)         19.81     17.07     18.88 
 H(Fragment=2)         19.82     18.02     19.03 
 H(Fragment=2)         19.45     16.7      19.68 
 O(Fragment=2)         22.85     19.53     18.6 
 H(Fragment=2)         23.53     19.33     19.23 
 H(Fragment=2)         22.05     19.59     19.12 
 O(Fragment=2)         22.49     18.56     21.53 
 H(Fragment=2)         22.57     17.62     21.37 
 H(Fragment=2)         21.67     18.8      21.09 
 O(Fragment=2)         19.41     19.28     23.02 
 H(Fragment=2)         19.98     19.27     22.25 
 H(Fragment=2)         18.67     19.82     22.76 
 O(Fragment=2)         17.02     19.1      18.78 
 H(Fragment=2)         17.22     18.44     18.12 
 H(Fragment=2)         17.87     19.45     19.04 
 O(Fragment=2)         19.69     23.22     20.06 
 H(Fragment=2)         19.       23.2      20.73 
 H(Fragment=2)         20.19     22.41     20.21 
 O(Fragment=2)         22.34     22.06     21.3 
 H(Fragment=2)         21.71     22.44     21.91 
 H(Fragment=2)         21.85     21.39     20.83 
 O(Fragment=2)         21.01     21.52     16.79 
 H(Fragment=2)         20.11     21.55     16.45 
 H(Fragment=2)         20.93     21.05     17.62 
 O(Fragment=2)         17.82     22.42     17.92 
 H(Fragment=2)         18.04     21.94     17.12 
 H(Fragment=2)         18.26     21.94     18.62 
 O(Fragment=2)         22.09     16.44     17.61 
 H(Fragment=2)         22.71     17.15     17.76 
 H(Fragment=2)         21.25     16.79     17.89 
 O(Fragment=2)         15.84     22.31     20.59 
 H(Fragment=2)         16.35     23.03     20.22 
 H(Fragment=2)         16.47     21.8      21.1 
 O(Fragment=2)         23.07     19.55     16.02 
 H(Fragment=2)         22.95     19.66     16.96 
 H(Fragment=2)         22.78     20.39     15.64 
 O(Fragment=2)         19.45     16.12     23.24 
 H(Fragment=2)         19.13     17.01     23.11 
 H(Fragment=2)         20.08     16.18     23.96 
 O(Fragment=2)         20.23     24.76     17.62 
 H(Fragment=2)         21.17     24.91     17.64 
 H(Fragment=2)         20.08     24.09     18.29 
 O(Fragment=2)         20.49     23.13     23.13 
 H(Fragment=2)         20.97     23.56     23.84 
 H(Fragment=2)         19.78     23.74     22.92 
 O(Fragment=2)         17.92     18.16     16.38 
 H(Fragment=2)         17.28     17.47     16.22 
 H(Fragment=2)         17.55     18.94     15.96 
 O(Fragment=2)         22.94     18.7      24.37 
 H(Fragment=2)         23.85     18.98     24.43 
 H(Fragment=2)         22.75     18.7      23.43 
 O(Fragment=2)         18.68     15.19     17.15 
 H(Fragment=2)         19.38     14.54     17.07 
 H(Fragment=2)         19.13     15.99     17.41 
 O(Fragment=2)         22.73     23.99     17.42 
 H(Fragment=2)         22.29     23.22     17.05 
 H(Fragment=2)         23.39     23.62     18.01 
 O(Fragment=2)         18.69     21.14     15.31 
 H(Fragment=2)         18.8      21.63     14.5 
 H(Fragment=2)         17.96     20.55     15.13 
 O(Fragment=2)         17.59     23.71     22.35 
 H(Fragment=2)         17.46     24.06     23.24 
 H(Fragment=2)         17.39     24.45     21.78 
 O(Fragment=2)         16.24     17.16     22.44 
 H(Fragment=2)         16.85     17.51     23.09 
 H(Fragment=2)         16.79     16.63     21.86 
 O(Fragment=2)         19.64     19.77     25.92 
 H(Fragment=2)         20.47     19.51     26.32 
 H(Fragment=2)         19.74     19.54     24.99 
 O(Fragment=2)         14.23     19.27     18.53 
 H(Fragment=2)         14.03     20.19     18.34 
 H(Fragment=2)         15.18     19.25     18.67 
 O(Fragment=2)         16.93     24.94     19.26 
 H(Fragment=2)         16.27     25.08     18.59 
 H(Fragment=2)         17.5      24.26     18.9 
 O(Fragment=2)         24.72     22.63     18.74 
 H(Fragment=2)         24.69     23.11     19.56 
 H(Fragment=2)         24.69     21.71     19. 
 O(Fragment=2)         25.25     20.19     20.09 
 H(Fragment=2)         24.99     20.27     21.01 
 H(Fragment=2)         26.06     19.67     20.11 
 O(Fragment=2)         19.42     14.71     20.94 
 H(Fragment=2)         19.56     13.81     21.22 
 H(Fragment=2)         19.36     15.21     21.76 
 O(Fragment=2)         25.02     22.73     21.67 
 H(Fragment=2)         25.36     22.89     22.55 
 H(Fragment=2)         24.07     22.68     21.79 
 O(Fragment=2)         17.01     15.6      20.24 
 H(Fragment=2)         16.45     14.83     20.15 
 H(Fragment=2)         17.9      15.25     20.3 
 O(Fragment=2)         22.89     15.63     21.4 
 H(Fragment=2)         22.3      14.9      21.59 
 H(Fragment=2)         23.65     15.23     20.98 
 O(Fragment=2)         24.95     17.35     19.06 
 H(Fragment=2)         25.89     17.18     19.03 
 H(Fragment=2)         24.71     17.2      19.97 
 O(Fragment=2)         15.47     16.54     18.29 
 H(Fragment=2)         15.2      17.23     18.9 
 H(Fragment=2)         16.23     16.13     18.7 
 O(Fragment=2)         21.08     17.45     14.68 
 H(Fragment=2)         20.48     18.16     14.44 
 H(Fragment=2)         21.88     17.9      14.96 
 O(Fragment=2)         21.35     25.81     20.7 
 H(Fragment=2)         21.43     25.42     21.57 
 H(Fragment=2)         22.18     25.61     20.27 
 O(Fragment=2)         21.91     16.25     24.89 
 H(Fragment=2)         22.21     17.11     24.59 
 H(Fragment=2)         22.72     15.76     25.04 
 O(Fragment=2)         17.98     24.22     15.6 
 H(Fragment=2)         18.82     24.57     15.91 
 H(Fragment=2)         17.51     23.99     16.4 
 O(Fragment=2)         26.24     19.71     17.59 
 H(Fragment=2)         25.78     19.46     18.4 
 H(Fragment=2)         25.7      20.41     17.22 
 O(Fragment=2)         13.71     21.9      18.57 
 H(Fragment=2)         13.22     22.71     18.42 
 H(Fragment=2)         14.43     22.16     19.15 
 O(Fragment=2)         20.94     13.61     18.45 
 H(Fragment=2)         21.44     14.39     18.21 
 H(Fragment=2)         20.61     13.81     19.33 
 O(Fragment=2)         24.6      17.22     16.03 
 H(Fragment=2)         24.67     16.89     16.93 
 H(Fragment=2)         24.38     18.15     16.14 
 O(Fragment=2)         15.32     24.24     17.11 
 H(Fragment=2)         14.37     24.36     17.14 
 H(Fragment=2)         15.46     23.33     17.38 
 O(Fragment=2)         19.14     26.76     19.53 
 H(Fragment=2)         18.51     26.04     19.43 
 H(Fragment=2)         19.92     26.34     19.88 
 O(Fragment=2)         23.26     22.12     14.3 
 H(Fragment=2)         22.35     22.02     14.57 
 H(Fragment=2)         23.25     22.86     13.69 
 O(Fragment=2)         13.69     18.06     22.31 
 H(Fragment=2)         13.53     17.88     23.24 
 H(Fragment=2)         14.55     17.67     22.14 
 O(Fragment=2)         16.22     19.83     14.84 
 H(Fragment=2)         15.96     19.42     14.01 
 H(Fragment=2)         15.53     19.58     15.45 
 O(Fragment=2)         14.33     18.42     16.18 
 H(Fragment=2)         13.49     17.97     16.13 
 H(Fragment=2)         14.43     18.64     17.11 
 O(Fragment=2)         25.56     18.99     23.59 
 H(Fragment=2)         25.59     18.37     22.86 
 H(Fragment=2)         26.47     19.09     23.87 
 O(Fragment=2)         15.08     21.46     24.3 
 H(Fragment=2)         15.62     20.86     24.82 
 H(Fragment=2)         14.22     21.05     24.29 
 O(Fragment=2)         18.57     15.57     14.45 
 H(Fragment=2)         18.4      15.53     15.39 
 H(Fragment=2)         19.32     16.17     14.37 
 O(Fragment=2)         16.53     14.78     23.66 
 H(Fragment=2)         16.26     15.62     23.3 
 H(Fragment=2)         15.83     14.52     24.25 
 O(Fragment=2)         13.99     24.06     22.14 
 H(Fragment=2)         14.45     24.81     21.74 
 H(Fragment=2)         14.59     23.33     22.03 
 O(Fragment=2)         25.7      16.32     22.18 
 H(Fragment=2)         26.19     16.19     22.99 
 H(Fragment=2)         24.82     15.99     22.38 
 O(Fragment=2)         20.91     20.85     13.4 
 H(Fragment=2)         21.41     20.38     12.74 
 H(Fragment=2)         20.08     21.08     12.97 
 O(Fragment=2)         22.71     14.32     15.59 
 H(Fragment=2)         23.53     14.09     16.01 
 H(Fragment=2)         22.34     15.02     16.14 
 O(Fragment=2)         23.98     25.56     19.59 
 H(Fragment=2)         24.88     25.75     19.34 
 H(Fragment=2)         23.47     25.69     18.79 
 O(Fragment=2)         22.26     18.64     27.06 
 H(Fragment=2)         21.51     18.06     27.21 
 H(Fragment=2)         22.48     18.51     26.14 
 O(Fragment=2)         12.74     20.69     21.16 
 H(Fragment=2)         13.24     21.02     20.42 
 H(Fragment=2)         13.33     20.09     21.6 
 O(Fragment=2)         13.97     21.84     15.45 
 H(Fragment=2)         14.83     21.56     15.78 
 H(Fragment=2)         13.82     21.29     14.68 
 O(Fragment=2)         20.9      25.25     24.48 
 H(Fragment=2)         21.71     25.7      24.7 
 H(Fragment=2)         20.33     25.92     24.1 
 O(Fragment=2)         16.74     24.29     24.93 
 H(Fragment=2)         16.14     23.63     24.56 
 H(Fragment=2)         16.27     25.11     24.83 
 O(Fragment=2)         16.9      17.17     25.66 
 H(Fragment=2)         17.67     16.8      26.09 
 H(Fragment=2)         16.21     16.52     25.81 
 O(Fragment=2)         24.96     23.11     24.44 
 H(Fragment=2)         24.92     23.73     25.17 
 H(Fragment=2)         24.66     22.29     24.81 
 O(Fragment=2)         20.48     23.63     26.9 
 H(Fragment=2)         20.94     22.88     26.51 
 H(Fragment=2)         20.72     24.37     26.35 
 O(Fragment=2)         20.13     27.2      16.3 
 H(Fragment=2)         20.8      26.82     15.73 
 H(Fragment=2)         19.88     26.48     16.89 
 O(Fragment=2)         16.45     26.01     21.76 
 H(Fragment=2)         16.59     26.32     20.87 
 H(Fragment=2)         15.71     26.53     22.08 
 O(Fragment=2)         17.67     20.42     27.76 
 H(Fragment=2)         18.24     20.2      27.02 
 H(Fragment=2)         17.58     21.37     27.73 
 O(Fragment=2)         27.48     23.3      20.83 
 H(Fragment=2)         27.4      23.83     21.63 
 H(Fragment=2)         26.63     22.87     20.74 
 O(Fragment=2)         26.85     23.46     17.08 
 H(Fragment=2)         27.35     24.13     17.55 
 H(Fragment=2)         26.11     23.26     17.65 
 O(Fragment=2)         12.23     17.73     19.33 
 H(Fragment=2)         11.92     17.64     18.43 
 H(Fragment=2)         12.8      18.5      19.31 
 O(Fragment=2)         15.59     19.55     26.41 
 H(Fragment=2)         16.05     20.07     27.07 
 H(Fragment=2)         16.16     18.8      26.26 
 O(Fragment=2)         24.65     20.92     26.09 
 H(Fragment=2)         24.72     21.24     26.99 
 H(Fragment=2)         24.18     20.09     26.17 
 O(Fragment=2)         25.05     25.57     16.12 
 H(Fragment=2)         24.9      26.32     16.7 
 H(Fragment=2)         24.63     24.84     16.57 
 O(Fragment=2)         24.45     13.55     17.85 
 H(Fragment=2)         24.32     13.21     18.74 
 H(Fragment=2)         24.75     14.45     17.99 
 O(Fragment=2)         20.68     14.29     26.45 
 H(Fragment=2)         20.06     14.68     27.06 
 H(Fragment=2)         20.86     14.98     25.81 
 O(Fragment=2)         14.95     14.64     16.22 
 H(Fragment=2)         15.69     14.19     16.65 
 H(Fragment=2)         14.7      15.32     16.84 
 O(Fragment=2)         24.91     13.99     20.46 
 H(Fragment=2)         25.65     14.39     20.91 
 H(Fragment=2)         24.96     13.07     20.69 
 O(Fragment=2)         15.7      16.22     14.05 
 H(Fragment=2)         14.99     15.91     14.62 
 H(Fragment=2)         16.48     15.8      14.4 
 O(Fragment=2)         26.       22.96     14.56 
 H(Fragment=2)         26.19     23.37     15.41 
 H(Fragment=2)         25.13     22.59     14.67 
 O(Fragment=2)         20.97     28.58     21.38 
 H(Fragment=2)         21.04     27.72     20.95 
 H(Fragment=2)         21.88     28.84     21.53 
 O(Fragment=2)         17.52     23.15     27.19 
 H(Fragment=2)         18.46     23.04     27.07 
 H(Fragment=2)         17.24     23.65     26.42 
 O(Fragment=2)         18.79     26.89     23.73 
 H(Fragment=2)         18.76     27.07     24.67 
 H(Fragment=2)         17.87     26.75     23.48 
 O(Fragment=2)         18.36     20.57     12.27 
 H(Fragment=2)         17.75     19.83     12.28 
 H(Fragment=2)         17.89     21.25     11.78 
 O(Fragment=2)         18.54     12.69     24.81 
 H(Fragment=2)         18.01     13.2      25.42 
 H(Fragment=2)         18.93     13.34     24.23 
 O(Fragment=2)         26.25     26.23     21.49 
 H(Fragment=2)         25.48     25.71     21.23 
 H(Fragment=2)         26.67     25.7      22.17 
 O(Fragment=2)         17.02     11.98     20.09 
 H(Fragment=2)         17.72     12.31     20.65 
 H(Fragment=2)         16.28     12.57     20.26 
 O(Fragment=2)         13.1      15.55     20.9 
 H(Fragment=2)         12.59     16.18     20.39 
 H(Fragment=2)         13.23     15.98     21.74 
 O(Fragment=2)         24.86     17.55     13.1 
 H(Fragment=2)         24.83     17.41     14.05 
 H(Fragment=2)         24.25     16.91     12.74 
 O(Fragment=2)         24.42     15.54     25.17 
 H(Fragment=2)         24.88     14.71     25.06 
 H(Fragment=2)         24.8      15.92     25.95 
 O(Fragment=2)         21.78     12.59     23.28 
 H(Fragment=2)         22.38     11.85     23.23 
 H(Fragment=2)         22.18     13.19     23.91 
 O(Fragment=2)         14.86     13.34     20.74 
 H(Fragment=2)         14.31     12.85     20.13 
 H(Fragment=2)         14.39     14.15     20.9 
 O(Fragment=2)         19.47     12.08     21.94 
 H(Fragment=2)         19.02     11.45     22.49 
 H(Fragment=2)         20.33     12.18     22.34 
 O(Fragment=2)         11.59     19.95     16.78 
 H(Fragment=2)         12.4      20.44     16.91 
 H(Fragment=2)         11.18     20.36     16.01 
 O(Fragment=2)         17.09     18.3      12.48 
 H(Fragment=2)         17.85     18.08     11.95 
 H(Fragment=2)         16.64     17.47     12.62 
 O(Fragment=2)         15.7      26.27     14.78 
 H(Fragment=2)         14.82     25.92     14.67 
 H(Fragment=2)         16.16     25.63     15.31 
 O(Fragment=2)         22.23     26.7      14.7 
 H(Fragment=2)         22.43     25.78     14.55 
 H(Fragment=2)         22.63     27.15     13.96 
 O(Fragment=2)         27.21     15.96     19.05 
 H(Fragment=2)         27.62     15.7      18.23 
 H(Fragment=2)         27.82     16.57     19.45 
 O(Fragment=2)         25.15     20.19     12.47 
 H(Fragment=2)         24.73     20.68     13.18 
 H(Fragment=2)         25.       19.27     12.69 
 O(Fragment=2)         28.36     20.85     16.07 
 H(Fragment=2)         27.51     20.55     16.41 
 H(Fragment=2)         28.26     21.8      16. 
 O(Fragment=2)         27.17     24.34     23.21 
 H(Fragment=2)         27.75     24.25     23.96 
 H(Fragment=2)         26.29     24.33     23.58 
 O(Fragment=2)         18.88     28.93     18.2 
 H(Fragment=2)         19.49     28.55     17.56 
 H(Fragment=2)         18.83     28.29     18.9 
 O(Fragment=2)         28.29     18.41     20.44 
 H(Fragment=2)         29.02     18.33     19.83 
 H(Fragment=2)         28.67     18.22     21.29 
 O(Fragment=2)         21.26     11.47     16.45 
 H(Fragment=2)         21.42     12.2      17.05 
 H(Fragment=2)         21.48     11.81     15.59 
 O(Fragment=2)         23.4      26.75     24.24 
 H(Fragment=2)         24.18     26.23     24.44 
 H(Fragment=2)         23.66     27.3      23.5 
 O(Fragment=2)         21.3      24.41     12.63 
 H(Fragment=2)         20.6      23.92     12.2 
 H(Fragment=2)         21.18     25.31     12.34 
 O(Fragment=2)         27.6      20.02     25.05 
 H(Fragment=2)         28.07     19.26     25.4 
 H(Fragment=2)         26.75     20.       25.5 
 O(Fragment=2)         16.93     24.77     12.39 
 H(Fragment=2)         17.2      24.82     13.3 
 H(Fragment=2)         17.2      25.6      12.01 
 O(Fragment=2)         18.9      16.39     27.9 
 H(Fragment=2)         19.48     16.11     28.62 
 H(Fragment=2)         18.49     17.19     28.24 
 O(Fragment=2)         28.92     22.02     18.82 
 H(Fragment=2)         28.45     22.45     19.54 
 H(Fragment=2)         28.3      22.05     18.09 
 O(Fragment=2)         18.58     11.14     17.54 
 H(Fragment=2)         19.42     11.57     17.68 
 H(Fragment=2)         18.07     11.35     18.32 
 O(Fragment=2)         23.24     15.18     12.64 
 H(Fragment=2)         23.       14.35     12.22 
 H(Fragment=2)         23.22     14.98     13.58 
 O(Fragment=2)         12.74     20.16     24.94 
 H(Fragment=2)         11.92     20.64     25.07 
 H(Fragment=2)         12.59     19.31     25.34 
 O(Fragment=2)         18.66     13.05     13.35 
 H(Fragment=2)         18.12     12.36     13.73 
 H(Fragment=2)         18.43     13.83     13.85 
 O(Fragment=2)         10.59     17.79     21.6 
 H(Fragment=2)         10.17     18.15     20.82 
 H(Fragment=2)         11.52     17.71     21.35 
 O(Fragment=2)         27.22     15.55     15.97 
 H(Fragment=2)         26.37     15.63     15.55 
 H(Fragment=2)         27.7      16.34     15.7 
 O(Fragment=2)         10.55     22.04     21.89 
 H(Fragment=2)         10.35     21.3      22.47 
 H(Fragment=2)         11.41     21.83     21.53 
 O(Fragment=2)         12.59     24.48     17.76 
 H(Fragment=2)         12.31     25.3      18.16 
 H(Fragment=2)         11.95     24.31     17.07 
 O(Fragment=2)         14.86     27.84     17.8 
 H(Fragment=2)         15.52     27.33     17.34 
 H(Fragment=2)         15.29     28.68     17.97 
 O(Fragment=2)         26.61     26.06     18.7 
 H(Fragment=2)         26.71     26.34     19.61 
 H(Fragment=2)         26.82     26.84     18.19 
 O(Fragment=2)         21.52     12.45     13.96 
 H(Fragment=2)         21.86     13.33     14.15 
 H(Fragment=2)         20.57     12.56     13.92 
 O(Fragment=2)         11.27     24.64     20.93 
 H(Fragment=2)         10.82     23.81     21.07 
 H(Fragment=2)         12.19     24.46     21.14 
 O(Fragment=2)         13.9      17.73     12.62 
 H(Fragment=2)         14.39     17.37     13.35 
 H(Fragment=2)         13.21     17.09     12.45 
 O(Fragment=2)         21.86     19.28     11.11 
 H(Fragment=2)         21.44     18.44     10.94 
 H(Fragment=2)         22.43     19.42     10.36 
 O(Fragment=2)         23.92     28.2      16.81 
 H(Fragment=2)         24.28     28.77     16.13 
 H(Fragment=2)         23.15     27.8      16.41 
 O(Fragment=2)         17.43     18.14     29.34 
 H(Fragment=2)         16.62     18.2      29.83 
 H(Fragment=2)         17.41     18.89     28.74 
 O(Fragment=2)         14.06     15.88     25.69 
 H(Fragment=2)         13.36     16.51     25.5 
 H(Fragment=2)         14.12     15.87     26.64 
 O(Fragment=2)         18.19     27.84     14.32 
 H(Fragment=2)         17.44     27.42     14.74 
 H(Fragment=2)         18.94     27.58     14.85 
 O(Fragment=2)         24.2      28.03     21.9 
 H(Fragment=2)         25.04     27.57     21.89 
 H(Fragment=2)         24.39     28.87     21.48 
 
 NAtoms=    385 NQM=      385 NQMF=       0 NMMI=      0 NMMIF=      0
                NMic=       0 NMicF=      0.
                    Isotopes and Nuclear Properties:
 (Nuclear quadrupole moments (NQMom) in fm**2, nuclear magnetic moments (NMagM)
  in nuclear magnetons)

  Atom         1           2           3           4           5           6           7           8           9          10
 IAtWgt=          79          16           1           1          16           1           1          16           1           1
 AtmWgt=  78.9183361  15.9949146   1.0078250   1.0078250  15.9949146   1.0078250   1.0078250  15.9949146   1.0078250   1.0078250
 NucSpn=           3           0           1           1           0           1           1           0           1           1
 AtZEff=   0.0000000   0.0000000   0.0000000   0.0000000   0.0000000   0.0000000   0.0000000   0.0000000   0.0000000   0.0000000
 NQMom=   31.3000000   0.0000000   0.0000000   0.0000000   0.0000000   0.0000000   0.0000000   0.0000000   0.0000000   0.0000000
 NMagM=    2.1063990   0.0000000   2.7928460   2.7928460   0.0000000   2.7928460   2.7928460   0.0000000   2.7928460   2.7928460
 AtZNuc=  35.0000000   8.0000000   1.0000000   1.0000000   8.0000000   1.0000000   1.0000000   8.0000000   1.0000000   1.0000000

  Atom        11          12          13          14          15          16          17          18          19          20
 IAtWgt=          16           1           1          16           1           1          16           1           1          16
 AtmWgt=  15.9949146   1.0078250   1.0078250  15.9949146   1.0078250   1.0078250  15.9949146   1.0078250   1.0078250  15.9949146
 NucSpn=           0           1           1           0           1           1           0           1           1           0
 AtZEff=   0.0000000   0.0000000   0.0000000   0.0000000   0.0000000   0.0000000   0.0000000   0.0000000   0.0000000   0.0000000
 NQMom=    0.0000000   0.0000000   0.0000000   0.0000000   0.0000000   0.0000000   0.0000000   0.0000000   0.0000000   0.0000000
 NMagM=    0.0000000   2.7928460   2.7928460   0.0000000   2.7928460   2.7928460   0.0000000   2.7928460   2.7928460   0.0000000
 AtZNuc=   8.0000000   1.0000000   1.0000000   8.0000000   1.0000000   1.0000000   8.0000000   1.0000000   1.0000000   8.0000000

  Atom        21          22          23          24          25          26          27          28          29          30
 IAtWgt=           1           1          16           1           1          16           1           1          16           1
 AtmWgt=   1.0078250   1.0078250  15.9949146   1.0078250   1.0078250  15.9949146   1.0078250   1.0078250  15.9949146   1.0078250
 NucSpn=           1           1           0           1           1           0           1           1           0           1
 AtZEff=   0.0000000   0.0000000   0.0000000   0.0000000   0.0000000   0.0000000   0.0000000   0.0000000   0.0000000   0.0000000
 NQMom=    0.0000000   0.0000000   0.0000000   0.0000000   0.0000000   0.0000000   0.0000000   0.0000000   0.0000000   0.0000000
 NMagM=    2.7928460   2.7928460   0.0000000   2.7928460   2.7928460   0.0000000   2.7928460   2.7928460   0.0000000   2.7928460
 AtZNuc=   1.0000000   1.0000000   8.0000000   1.0000000   1.0000000   8.0000000   1.0000000   1.0000000   8.0000000   1.0000000

  Atom        31          32          33          34          35          36          37          38          39          40
 IAtWgt=           1          16           1           1          16           1           1          16           1           1
 AtmWgt=   1.0078250  15.9949146   1.0078250   1.0078250  15.9949146   1.0078250   1.0078250  15.9949146   1.0078250   1.0078250
 NucSpn=           1           0           1           1           0           1           1           0           1           1
 AtZEff=   0.0000000   0.0000000   0.0000000   0.0000000   0.0000000   0.0000000   0.0000000   0.0000000   0.0000000   0.0000000
 NQMom=    0.0000000   0.0000000   0.0000000   0.0000000   0.0000000   0.0000000   0.0000000   0.0000000   0.0000000   0.0000000
 NMagM=    2.7928460   0.0000000   2.7928460   2.7928460   0.0000000   2.7928460   2.7928460   0.0000000   2.7928460   2.7928460
 AtZNuc=   1.0000000   8.0000000   1.0000000   1.0000000   8.0000000   1.0000000   1.0000000   8.0000000   1.0000000   1.0000000

  Atom        41          42          43          44          45          46          47          48          49          50
 IAtWgt=          16           1           1          16           1           1          16           1           1          16
 AtmWgt=  15.9949146   1.0078250   1.0078250  15.9949146   1.0078250   1.0078250  15.9949146   1.0078250   1.0078250  15.9949146
 NucSpn=           0           1           1           0           1           1           0           1           1           0
 AtZEff=   0.0000000   0.0000000   0.0000000   0.0000000   0.0000000   0.0000000   0.0000000   0.0000000   0.0000000   0.0000000
 NQMom=    0.0000000   0.0000000   0.0000000   0.0000000   0.0000000   0.0000000   0.0000000   0.0000000   0.0000000   0.0000000
 NMagM=    0.0000000   2.7928460   2.7928460   0.0000000   2.7928460   2.7928460   0.0000000   2.7928460   2.7928460   0.0000000
 AtZNuc=   8.0000000   1.0000000   1.0000000   8.0000000   1.0000000   1.0000000   8.0000000   1.0000000   1.0000000   8.0000000

  Atom        51          52          53          54          55          56          57          58          59          60
 IAtWgt=           1           1          16           1           1          16           1           1          16           1
 AtmWgt=   1.0078250   1.0078250  15.9949146   1.0078250   1.0078250  15.9949146   1.0078250   1.0078250  15.9949146   1.0078250
 NucSpn=           1           1           0           1           1           0           1           1           0           1
 AtZEff=   0.0000000   0.0000000   0.0000000   0.0000000   0.0000000   0.0000000   0.0000000   0.0000000   0.0000000   0.0000000
 NQMom=    0.0000000   0.0000000   0.0000000   0.0000000   0.0000000   0.0000000   0.0000000   0.0000000   0.0000000   0.0000000
 NMagM=    2.7928460   2.7928460   0.0000000   2.7928460   2.7928460   0.0000000   2.7928460   2.7928460   0.0000000   2.7928460
 AtZNuc=   1.0000000   1.0000000   8.0000000   1.0000000   1.0000000   8.0000000   1.0000000   1.0000000   8.0000000   1.0000000

  Atom        61          62          63          64          65          66          67          68          69          70
 IAtWgt=           1          16           1           1          16           1           1          16           1           1
 AtmWgt=   1.0078250  15.9949146   1.0078250   1.0078250  15.9949146   1.0078250   1.0078250  15.9949146   1.0078250   1.0078250
 NucSpn=           1           0           1           1           0           1           1           0           1           1
 AtZEff=   0.0000000   0.0000000   0.0000000   0.0000000   0.0000000   0.0000000   0.0000000   0.0000000   0.0000000   0.0000000
 NQMom=    0.0000000   0.0000000   0.0000000   0.0000000   0.0000000   0.0000000   0.0000000   0.0000000   0.0000000   0.0000000
 NMagM=    2.7928460   0.0000000   2.7928460   2.7928460   0.0000000   2.7928460   2.7928460   0.0000000   2.7928460   2.7928460
 AtZNuc=   1.0000000   8.0000000   1.0000000   1.0000000   8.0000000   1.0000000   1.0000000   8.0000000   1.0000000   1.0000000

  Atom        71          72          73          74          75          76          77          78          79          80
 IAtWgt=          16           1           1          16           1           1          16           1           1          16
 AtmWgt=  15.9949146   1.0078250   1.0078250  15.9949146   1.0078250   1.0078250  15.9949146   1.0078250   1.0078250  15.9949146
 NucSpn=           0           1           1           0           1           1           0           1           1           0
 AtZEff=   0.0000000   0.0000000   0.0000000   0.0000000   0.0000000   0.0000000   0.0000000   0.0000000   0.0000000   0.0000000
 NQMom=    0.0000000   0.0000000   0.0000000   0.0000000   0.0000000   0.0000000   0.0000000   0.0000000   0.0000000   0.0000000
 NMagM=    0.0000000   2.7928460   2.7928460   0.0000000   2.7928460   2.7928460   0.0000000   2.7928460   2.7928460   0.0000000
 AtZNuc=   8.0000000   1.0000000   1.0000000   8.0000000   1.0000000   1.0000000   8.0000000   1.0000000   1.0000000   8.0000000

  Atom        81          82          83          84          85          86          87          88          89          90
 IAtWgt=           1           1          16           1           1          16           1           1          16           1
 AtmWgt=   1.0078250   1.0078250  15.9949146   1.0078250   1.0078250  15.9949146   1.0078250   1.0078250  15.9949146   1.0078250
 NucSpn=           1           1           0           1           1           0           1           1           0           1
 AtZEff=   0.0000000   0.0000000   0.0000000   0.0000000   0.0000000   0.0000000   0.0000000   0.0000000   0.0000000   0.0000000
 NQMom=    0.0000000   0.0000000   0.0000000   0.0000000   0.0000000   0.0000000   0.0000000   0.0000000   0.0000000   0.0000000
 NMagM=    2.7928460   2.7928460   0.0000000   2.7928460   2.7928460   0.0000000   2.7928460   2.7928460   0.0000000   2.7928460
 AtZNuc=   1.0000000   1.0000000   8.0000000   1.0000000   1.0000000   8.0000000   1.0000000   1.0000000   8.0000000   1.0000000

  Atom        91          92          93          94          95          96          97          98          99         100
 IAtWgt=           1          16           1           1          16           1           1          16           1           1
 AtmWgt=   1.0078250  15.9949146   1.0078250   1.0078250  15.9949146   1.0078250   1.0078250  15.9949146   1.0078250   1.0078250
 NucSpn=           1           0           1           1           0           1           1           0           1           1
 AtZEff=   0.0000000   0.0000000   0.0000000   0.0000000   0.0000000   0.0000000   0.0000000   0.0000000   0.0000000   0.0000000
 NQMom=    0.0000000   0.0000000   0.0000000   0.0000000   0.0000000   0.0000000   0.0000000   0.0000000   0.0000000   0.0000000
 NMagM=    2.7928460   0.0000000   2.7928460   2.7928460   0.0000000   2.7928460   2.7928460   0.0000000   2.7928460   2.7928460
 AtZNuc=   1.0000000   8.0000000   1.0000000   1.0000000   8.0000000   1.0000000   1.0000000   8.0000000   1.0000000   1.0000000

  Atom       101         102         103         104         105         106         107         108         109         110
 IAtWgt=          16           1           1          16           1           1          16           1           1          16
 AtmWgt=  15.9949146   1.0078250   1.0078250  15.9949146   1.0078250   1.0078250  15.9949146   1.0078250   1.0078250  15.9949146
 NucSpn=           0           1           1           0           1           1           0           1           1           0
 AtZEff=   0.0000000   0.0000000   0.0000000   0.0000000   0.0000000   0.0000000   0.0000000   0.0000000   0.0000000   0.0000000
 NQMom=    0.0000000   0.0000000   0.0000000   0.0000000   0.0000000   0.0000000   0.0000000   0.0000000   0.0000000   0.0000000
 NMagM=    0.0000000   2.7928460   2.7928460   0.0000000   2.7928460   2.7928460   0.0000000   2.7928460   2.7928460   0.0000000
 AtZNuc=   8.0000000   1.0000000   1.0000000   8.0000000   1.0000000   1.0000000   8.0000000   1.0000000   1.0000000   8.0000000

  Atom       111         112         113         114         115         116         117         118         119         120
 IAtWgt=           1           1          16           1           1          16           1           1          16           1
 AtmWgt=   1.0078250   1.0078250  15.9949146   1.0078250   1.0078250  15.9949146   1.0078250   1.0078250  15.9949146   1.0078250
 NucSpn=           1           1           0           1           1           0           1           1           0           1
 AtZEff=   0.0000000   0.0000000   0.0000000   0.0000000   0.0000000   0.0000000   0.0000000   0.0000000   0.0000000   0.0000000
 NQMom=    0.0000000   0.0000000   0.0000000   0.0000000   0.0000000   0.0000000   0.0000000   0.0000000   0.0000000   0.0000000
 NMagM=    2.7928460   2.7928460   0.0000000   2.7928460   2.7928460   0.0000000   2.7928460   2.7928460   0.0000000   2.7928460
 AtZNuc=   1.0000000   1.0000000   8.0000000   1.0000000   1.0000000   8.0000000   1.0000000   1.0000000   8.0000000   1.0000000

  Atom       121         122         123         124         125         126         127         128         129         130
 IAtWgt=           1          16           1           1          16           1           1          16           1           1
 AtmWgt=   1.0078250  15.9949146   1.0078250   1.0078250  15.9949146   1.0078250   1.0078250  15.9949146   1.0078250   1.0078250
 NucSpn=           1           0           1           1           0           1           1           0           1           1
 AtZEff=   0.0000000   0.0000000   0.0000000   0.0000000   0.0000000   0.0000000   0.0000000   0.0000000   0.0000000   0.0000000
 NQMom=    0.0000000   0.0000000   0.0000000   0.0000000   0.0000000   0.0000000   0.0000000   0.0000000   0.0000000   0.0000000
 NMagM=    2.7928460   0.0000000   2.7928460   2.7928460   0.0000000   2.7928460   2.7928460   0.0000000   2.7928460   2.7928460
 AtZNuc=   1.0000000   8.0000000   1.0000000   1.0000000   8.0000000   1.0000000   1.0000000   8.0000000   1.0000000   1.0000000

  Atom       131         132         133         134         135         136         137         138         139         140
 IAtWgt=          16           1           1          16           1           1          16           1           1          16
 AtmWgt=  15.9949146   1.0078250   1.0078250  15.9949146   1.0078250   1.0078250  15.9949146   1.0078250   1.0078250  15.9949146
 NucSpn=           0           1           1           0           1           1           0           1           1           0
 AtZEff=   0.0000000   0.0000000   0.0000000   0.0000000   0.0000000   0.0000000   0.0000000   0.0000000   0.0000000   0.0000000
 NQMom=    0.0000000   0.0000000   0.0000000   0.0000000   0.0000000   0.0000000   0.0000000   0.0000000   0.0000000   0.0000000
 NMagM=    0.0000000   2.7928460   2.7928460   0.0000000   2.7928460   2.7928460   0.0000000   2.7928460   2.7928460   0.0000000
 AtZNuc=   8.0000000   1.0000000   1.0000000   8.0000000   1.0000000   1.0000000   8.0000000   1.0000000   1.0000000   8.0000000

  Atom       141         142         143         144         145         146         147         148         149         150
 IAtWgt=           1           1          16           1           1          16           1           1          16           1
 AtmWgt=   1.0078250   1.0078250  15.9949146   1.0078250   1.0078250  15.9949146   1.0078250   1.0078250  15.9949146   1.0078250
 NucSpn=           1           1           0           1           1           0           1           1           0           1
 AtZEff=   0.0000000   0.0000000   0.0000000   0.0000000   0.0000000   0.0000000   0.0000000   0.0000000   0.0000000   0.0000000
 NQMom=    0.0000000   0.0000000   0.0000000   0.0000000   0.0000000   0.0000000   0.0000000   0.0000000   0.0000000   0.0000000
 NMagM=    2.7928460   2.7928460   0.0000000   2.7928460   2.7928460   0.0000000   2.7928460   2.7928460   0.0000000   2.7928460
 AtZNuc=   1.0000000   1.0000000   8.0000000   1.0000000   1.0000000   8.0000000   1.0000000   1.0000000   8.0000000   1.0000000

  Atom       151         152         153         154         155         156         157         158         159         160
 IAtWgt=           1          16           1           1          16           1           1          16           1           1
 AtmWgt=   1.0078250  15.9949146   1.0078250   1.0078250  15.9949146   1.0078250   1.0078250  15.9949146   1.0078250   1.0078250
 NucSpn=           1           0           1           1           0           1           1           0           1           1
 AtZEff=   0.0000000   0.0000000   0.0000000   0.0000000   0.0000000   0.0000000   0.0000000   0.0000000   0.0000000   0.0000000
 NQMom=    0.0000000   0.0000000   0.0000000   0.0000000   0.0000000   0.0000000   0.0000000   0.0000000   0.0000000   0.0000000
 NMagM=    2.7928460   0.0000000   2.7928460   2.7928460   0.0000000   2.7928460   2.7928460   0.0000000   2.7928460   2.7928460
 AtZNuc=   1.0000000   8.0000000   1.0000000   1.0000000   8.0000000   1.0000000   1.0000000   8.0000000   1.0000000   1.0000000

  Atom       161         162         163         164         165         166         167         168         169         170
 IAtWgt=          16           1           1          16           1           1          16           1           1          16
 AtmWgt=  15.9949146   1.0078250   1.0078250  15.9949146   1.0078250   1.0078250  15.9949146   1.0078250   1.0078250  15.9949146
 NucSpn=           0           1           1           0           1           1           0           1           1           0
 AtZEff=   0.0000000   0.0000000   0.0000000   0.0000000   0.0000000   0.0000000   0.0000000   0.0000000   0.0000000   0.0000000
 NQMom=    0.0000000   0.0000000   0.0000000   0.0000000   0.0000000   0.0000000   0.0000000   0.0000000   0.0000000   0.0000000
 NMagM=    0.0000000   2.7928460   2.7928460   0.0000000   2.7928460   2.7928460   0.0000000   2.7928460   2.7928460   0.0000000
 AtZNuc=   8.0000000   1.0000000   1.0000000   8.0000000   1.0000000   1.0000000   8.0000000   1.0000000   1.0000000   8.0000000

  Atom       171         172         173         174         175         176         177         178         179         180
 IAtWgt=           1           1          16           1           1          16           1           1          16           1
 AtmWgt=   1.0078250   1.0078250  15.9949146   1.0078250   1.0078250  15.9949146   1.0078250   1.0078250  15.9949146   1.0078250
 NucSpn=           1           1           0           1           1           0           1           1           0           1
 AtZEff=   0.0000000   0.0000000   0.0000000   0.0000000   0.0000000   0.0000000   0.0000000   0.0000000   0.0000000   0.0000000
 NQMom=    0.0000000   0.0000000   0.0000000   0.0000000   0.0000000   0.0000000   0.0000000   0.0000000   0.0000000   0.0000000
 NMagM=    2.7928460   2.7928460   0.0000000   2.7928460   2.7928460   0.0000000   2.7928460   2.7928460   0.0000000   2.7928460
 AtZNuc=   1.0000000   1.0000000   8.0000000   1.0000000   1.0000000   8.0000000   1.0000000   1.0000000   8.0000000   1.0000000

  Atom       181         182         183         184         185         186         187         188         189         190
 IAtWgt=           1          16           1           1          16           1           1          16           1           1
 AtmWgt=   1.0078250  15.9949146   1.0078250   1.0078250  15.9949146   1.0078250   1.0078250  15.9949146   1.0078250   1.0078250
 NucSpn=           1           0           1           1           0           1           1           0           1           1
 AtZEff=   0.0000000   0.0000000   0.0000000   0.0000000   0.0000000   0.0000000   0.0000000   0.0000000   0.0000000   0.0000000
 NQMom=    0.0000000   0.0000000   0.0000000   0.0000000   0.0000000   0.0000000   0.0000000   0.0000000   0.0000000   0.0000000
 NMagM=    2.7928460   0.0000000   2.7928460   2.7928460   0.0000000   2.7928460   2.7928460   0.0000000   2.7928460   2.7928460
 AtZNuc=   1.0000000   8.0000000   1.0000000   1.0000000   8.0000000   1.0000000   1.0000000   8.0000000   1.0000000   1.0000000

  Atom       191         192         193         194         195         196         197         198         199         200
 IAtWgt=          16           1           1          16           1           1          16           1           1          16
 AtmWgt=  15.9949146   1.0078250   1.0078250  15.9949146   1.0078250   1.0078250  15.9949146   1.0078250   1.0078250  15.9949146
 NucSpn=           0           1           1           0           1           1           0           1           1           0
 AtZEff=   0.0000000   0.0000000   0.0000000   0.0000000   0.0000000   0.0000000   0.0000000   0.0000000   0.0000000   0.0000000
 NQMom=    0.0000000   0.0000000   0.0000000   0.0000000   0.0000000   0.0000000   0.0000000   0.0000000   0.0000000   0.0000000
 NMagM=    0.0000000   2.7928460   2.7928460   0.0000000   2.7928460   2.7928460   0.0000000   2.7928460   2.7928460   0.0000000
 AtZNuc=   8.0000000   1.0000000   1.0000000   8.0000000   1.0000000   1.0000000   8.0000000   1.0000000   1.0000000   8.0000000

  Atom       201         202         203         204         205         206         207         208         209         210
 IAtWgt=           1           1          16           1           1          16           1           1          16           1
 AtmWgt=   1.0078250   1.0078250  15.9949146   1.0078250   1.0078250  15.9949146   1.0078250   1.0078250  15.9949146   1.0078250
 NucSpn=           1           1           0           1           1           0           1           1           0           1
 AtZEff=   0.0000000   0.0000000   0.0000000   0.0000000   0.0000000   0.0000000   0.0000000   0.0000000   0.0000000   0.0000000
 NQMom=    0.0000000   0.0000000   0.0000000   0.0000000   0.0000000   0.0000000   0.0000000   0.0000000   0.0000000   0.0000000
 NMagM=    2.7928460   2.7928460   0.0000000   2.7928460   2.7928460   0.0000000   2.7928460   2.7928460   0.0000000   2.7928460
 AtZNuc=   1.0000000   1.0000000   8.0000000   1.0000000   1.0000000   8.0000000   1.0000000   1.0000000   8.0000000   1.0000000

  Atom       211         212         213         214         215         216         217         218         219         220
 IAtWgt=           1          16           1           1          16           1           1          16           1           1
 AtmWgt=   1.0078250  15.9949146   1.0078250   1.0078250  15.9949146   1.0078250   1.0078250  15.9949146   1.0078250   1.0078250
 NucSpn=           1           0           1           1           0           1           1           0           1           1
 AtZEff=   0.0000000   0.0000000   0.0000000   0.0000000   0.0000000   0.0000000   0.0000000   0.0000000   0.0000000   0.0000000
 NQMom=    0.0000000   0.0000000   0.0000000   0.0000000   0.0000000   0.0000000   0.0000000   0.0000000   0.0000000   0.0000000
 NMagM=    2.7928460   0.0000000   2.7928460   2.7928460   0.0000000   2.7928460   2.7928460   0.0000000   2.7928460   2.7928460
 AtZNuc=   1.0000000   8.0000000   1.0000000   1.0000000   8.0000000   1.0000000   1.0000000   8.0000000   1.0000000   1.0000000

  Atom       221         222         223         224         225         226         227         228         229         230
 IAtWgt=          16           1           1          16           1           1          16           1           1          16
 AtmWgt=  15.9949146   1.0078250   1.0078250  15.9949146   1.0078250   1.0078250  15.9949146   1.0078250   1.0078250  15.9949146
 NucSpn=           0           1           1           0           1           1           0           1           1           0
 AtZEff=   0.0000000   0.0000000   0.0000000   0.0000000   0.0000000   0.0000000   0.0000000   0.0000000   0.0000000   0.0000000
 NQMom=    0.0000000   0.0000000   0.0000000   0.0000000   0.0000000   0.0000000   0.0000000   0.0000000   0.0000000   0.0000000
 NMagM=    0.0000000   2.7928460   2.7928460   0.0000000   2.7928460   2.7928460   0.0000000   2.7928460   2.7928460   0.0000000
 AtZNuc=   8.0000000   1.0000000   1.0000000   8.0000000   1.0000000   1.0000000   8.0000000   1.0000000   1.0000000   8.0000000

  Atom       231         232         233         234         235         236         237         238         239         240
 IAtWgt=           1           1          16           1           1          16           1           1          16           1
 AtmWgt=   1.0078250   1.0078250  15.9949146   1.0078250   1.0078250  15.9949146   1.0078250   1.0078250  15.9949146   1.0078250
 NucSpn=           1           1           0           1           1           0           1           1           0           1
 AtZEff=   0.0000000   0.0000000   0.0000000   0.0000000   0.0000000   0.0000000   0.0000000   0.0000000   0.0000000   0.0000000
 NQMom=    0.0000000   0.0000000   0.0000000   0.0000000   0.0000000   0.0000000   0.0000000   0.0000000   0.0000000   0.0000000
 NMagM=    2.7928460   2.7928460   0.0000000   2.7928460   2.7928460   0.0000000   2.7928460   2.7928460   0.0000000   2.7928460
 AtZNuc=   1.0000000   1.0000000   8.0000000   1.0000000   1.0000000   8.0000000   1.0000000   1.0000000   8.0000000   1.0000000

  Atom       241         242         243         244         245         246         247         248         249         250
 IAtWgt=           1          16           1           1          16           1           1          16           1           1
 AtmWgt=   1.0078250  15.9949146   1.0078250   1.0078250  15.9949146   1.0078250   1.0078250  15.9949146   1.0078250   1.0078250
 NucSpn=           1           0           1           1           0           1           1           0           1           1
 AtZEff=   0.0000000   0.0000000   0.0000000   0.0000000   0.0000000   0.0000000   0.0000000   0.0000000   0.0000000   0.0000000
 NQMom=    0.0000000   0.0000000   0.0000000   0.0000000   0.0000000   0.0000000   0.0000000   0.0000000   0.0000000   0.0000000
 NMagM=    2.7928460   0.0000000   2.7928460   2.7928460   0.0000000   2.7928460   2.7928460   0.0000000   2.7928460   2.7928460
 AtZNuc=   1.0000000   8.0000000   1.0000000   1.0000000   8.0000000   1.0000000   1.0000000   8.0000000   1.0000000   1.0000000

  Atom       251         252         253         254         255         256         257         258         259         260
 IAtWgt=          16           1           1          16           1           1          16           1           1          16
 AtmWgt=  15.9949146   1.0078250   1.0078250  15.9949146   1.0078250   1.0078250  15.9949146   1.0078250   1.0078250  15.9949146
 NucSpn=           0           1           1           0           1           1           0           1           1           0
 AtZEff=   0.0000000   0.0000000   0.0000000   0.0000000   0.0000000   0.0000000   0.0000000   0.0000000   0.0000000   0.0000000
 NQMom=    0.0000000   0.0000000   0.0000000   0.0000000   0.0000000   0.0000000   0.0000000   0.0000000   0.0000000   0.0000000
 NMagM=    0.0000000   2.7928460   2.7928460   0.0000000   2.7928460   2.7928460   0.0000000   2.7928460   2.7928460   0.0000000
 AtZNuc=   8.0000000   1.0000000   1.0000000   8.0000000   1.0000000   1.0000000   8.0000000   1.0000000   1.0000000   8.0000000

  Atom       261         262         263         264         265         266         267         268         269         270
 IAtWgt=           1           1          16           1           1          16           1           1          16           1
 AtmWgt=   1.0078250   1.0078250  15.9949146   1.0078250   1.0078250  15.9949146   1.0078250   1.0078250  15.9949146   1.0078250
 NucSpn=           1           1           0           1           1           0           1           1           0           1
 AtZEff=   0.0000000   0.0000000   0.0000000   0.0000000   0.0000000   0.0000000   0.0000000   0.0000000   0.0000000   0.0000000
 NQMom=    0.0000000   0.0000000   0.0000000   0.0000000   0.0000000   0.0000000   0.0000000   0.0000000   0.0000000   0.0000000
 NMagM=    2.7928460   2.7928460   0.0000000   2.7928460   2.7928460   0.0000000   2.7928460   2.7928460   0.0000000   2.7928460
 AtZNuc=   1.0000000   1.0000000   8.0000000   1.0000000   1.0000000   8.0000000   1.0000000   1.0000000   8.0000000   1.0000000

  Atom       271         272         273         274         275         276         277         278         279         280
 IAtWgt=           1          16           1           1          16           1           1          16           1           1
 AtmWgt=   1.0078250  15.9949146   1.0078250   1.0078250  15.9949146   1.0078250   1.0078250  15.9949146   1.0078250   1.0078250
 NucSpn=           1           0           1           1           0           1           1           0           1           1
 AtZEff=   0.0000000   0.0000000   0.0000000   0.0000000   0.0000000   0.0000000   0.0000000   0.0000000   0.0000000   0.0000000
 NQMom=    0.0000000   0.0000000   0.0000000   0.0000000   0.0000000   0.0000000   0.0000000   0.0000000   0.0000000   0.0000000
 NMagM=    2.7928460   0.0000000   2.7928460   2.7928460   0.0000000   2.7928460   2.7928460   0.0000000   2.7928460   2.7928460
 AtZNuc=   1.0000000   8.0000000   1.0000000   1.0000000   8.0000000   1.0000000   1.0000000   8.0000000   1.0000000   1.0000000

  Atom       281         282         283         284         285         286         287         288         289         290
 IAtWgt=          16           1           1          16           1           1          16           1           1          16
 AtmWgt=  15.9949146   1.0078250   1.0078250  15.9949146   1.0078250   1.0078250  15.9949146   1.0078250   1.0078250  15.9949146
 NucSpn=           0           1           1           0           1           1           0           1           1           0
 AtZEff=   0.0000000   0.0000000   0.0000000   0.0000000   0.0000000   0.0000000   0.0000000   0.0000000   0.0000000   0.0000000
 NQMom=    0.0000000   0.0000000   0.0000000   0.0000000   0.0000000   0.0000000   0.0000000   0.0000000   0.0000000   0.0000000
 NMagM=    0.0000000   2.7928460   2.7928460   0.0000000   2.7928460   2.7928460   0.0000000   2.7928460   2.7928460   0.0000000
 AtZNuc=   8.0000000   1.0000000   1.0000000   8.0000000   1.0000000   1.0000000   8.0000000   1.0000000   1.0000000   8.0000000

  Atom       291         292         293         294         295         296         297         298         299         300
 IAtWgt=           1           1          16           1           1          16           1           1          16           1
 AtmWgt=   1.0078250   1.0078250  15.9949146   1.0078250   1.0078250  15.9949146   1.0078250   1.0078250  15.9949146   1.0078250
 NucSpn=           1           1           0           1           1           0           1           1           0           1
 AtZEff=   0.0000000   0.0000000   0.0000000   0.0000000   0.0000000   0.0000000   0.0000000   0.0000000   0.0000000   0.0000000
 NQMom=    0.0000000   0.0000000   0.0000000   0.0000000   0.0000000   0.0000000   0.0000000   0.0000000   0.0000000   0.0000000
 NMagM=    2.7928460   2.7928460   0.0000000   2.7928460   2.7928460   0.0000000   2.7928460   2.7928460   0.0000000   2.7928460
 AtZNuc=   1.0000000   1.0000000   8.0000000   1.0000000   1.0000000   8.0000000   1.0000000   1.0000000   8.0000000   1.0000000

  Atom       301         302         303         304         305         306         307         308         309         310
 IAtWgt=           1          16           1           1          16           1           1          16           1           1
 AtmWgt=   1.0078250  15.9949146   1.0078250   1.0078250  15.9949146   1.0078250   1.0078250  15.9949146   1.0078250   1.0078250
 NucSpn=           1           0           1           1           0           1           1           0           1           1
 AtZEff=   0.0000000   0.0000000   0.0000000   0.0000000   0.0000000   0.0000000   0.0000000   0.0000000   0.0000000   0.0000000
 NQMom=    0.0000000   0.0000000   0.0000000   0.0000000   0.0000000   0.0000000   0.0000000   0.0000000   0.0000000   0.0000000
 NMagM=    2.7928460   0.0000000   2.7928460   2.7928460   0.0000000   2.7928460   2.7928460   0.0000000   2.7928460   2.7928460
 AtZNuc=   1.0000000   8.0000000   1.0000000   1.0000000   8.0000000   1.0000000   1.0000000   8.0000000   1.0000000   1.0000000

  Atom       311         312         313         314         315         316         317         318         319         320
 IAtWgt=          16           1           1          16           1           1          16           1           1          16
 AtmWgt=  15.9949146   1.0078250   1.0078250  15.9949146   1.0078250   1.0078250  15.9949146   1.0078250   1.0078250  15.9949146
 NucSpn=           0           1           1           0           1           1           0           1           1           0
 AtZEff=   0.0000000   0.0000000   0.0000000   0.0000000   0.0000000   0.0000000   0.0000000   0.0000000   0.0000000   0.0000000
 NQMom=    0.0000000   0.0000000   0.0000000   0.0000000   0.0000000   0.0000000   0.0000000   0.0000000   0.0000000   0.0000000
 NMagM=    0.0000000   2.7928460   2.7928460   0.0000000   2.7928460   2.7928460   0.0000000   2.7928460   2.7928460   0.0000000
 AtZNuc=   8.0000000   1.0000000   1.0000000   8.0000000   1.0000000   1.0000000   8.0000000   1.0000000   1.0000000   8.0000000

  Atom       321         322         323         324         325         326         327         328         329         330
 IAtWgt=           1           1          16           1           1          16           1           1          16           1
 AtmWgt=   1.0078250   1.0078250  15.9949146   1.0078250   1.0078250  15.9949146   1.0078250   1.0078250  15.9949146   1.0078250
 NucSpn=           1           1           0           1           1           0           1           1           0           1
 AtZEff=   0.0000000   0.0000000   0.0000000   0.0000000   0.0000000   0.0000000   0.0000000   0.0000000   0.0000000   0.0000000
 NQMom=    0.0000000   0.0000000   0.0000000   0.0000000   0.0000000   0.0000000   0.0000000   0.0000000   0.0000000   0.0000000
 NMagM=    2.7928460   2.7928460   0.0000000   2.7928460   2.7928460   0.0000000   2.7928460   2.7928460   0.0000000   2.7928460
 AtZNuc=   1.0000000   1.0000000   8.0000000   1.0000000   1.0000000   8.0000000   1.0000000   1.0000000   8.0000000   1.0000000

  Atom       331         332         333         334         335         336         337         338         339         340
 IAtWgt=           1          16           1           1          16           1           1          16           1           1
 AtmWgt=   1.0078250  15.9949146   1.0078250   1.0078250  15.9949146   1.0078250   1.0078250  15.9949146   1.0078250   1.0078250
 NucSpn=           1           0           1           1           0           1           1           0           1           1
 AtZEff=   0.0000000   0.0000000   0.0000000   0.0000000   0.0000000   0.0000000   0.0000000   0.0000000   0.0000000   0.0000000
 NQMom=    0.0000000   0.0000000   0.0000000   0.0000000   0.0000000   0.0000000   0.0000000   0.0000000   0.0000000   0.0000000
 NMagM=    2.7928460   0.0000000   2.7928460   2.7928460   0.0000000   2.7928460   2.7928460   0.0000000   2.7928460   2.7928460
 AtZNuc=   1.0000000   8.0000000   1.0000000   1.0000000   8.0000000   1.0000000   1.0000000   8.0000000   1.0000000   1.0000000

  Atom       341         342         343         344         345         346         347         348         349         350
 IAtWgt=          16           1           1          16           1           1          16           1           1          16
 AtmWgt=  15.9949146   1.0078250   1.0078250  15.9949146   1.0078250   1.0078250  15.9949146   1.0078250   1.0078250  15.9949146
 NucSpn=           0           1           1           0           1           1           0           1           1           0
 AtZEff=   0.0000000   0.0000000   0.0000000   0.0000000   0.0000000   0.0000000   0.0000000   0.0000000   0.0000000   0.0000000
 NQMom=    0.0000000   0.0000000   0.0000000   0.0000000   0.0000000   0.0000000   0.0000000   0.0000000   0.0000000   0.0000000
 NMagM=    0.0000000   2.7928460   2.7928460   0.0000000   2.7928460   2.7928460   0.0000000   2.7928460   2.7928460   0.0000000
 AtZNuc=   8.0000000   1.0000000   1.0000000   8.0000000   1.0000000   1.0000000   8.0000000   1.0000000   1.0000000   8.0000000

  Atom       351         352         353         354         355         356         357         358         359         360
 IAtWgt=           1           1          16           1           1          16           1           1          16           1
 AtmWgt=   1.0078250   1.0078250  15.9949146   1.0078250   1.0078250  15.9949146   1.0078250   1.0078250  15.9949146   1.0078250
 NucSpn=           1           1           0           1           1           0           1           1           0           1
 AtZEff=   0.0000000   0.0000000   0.0000000   0.0000000   0.0000000   0.0000000   0.0000000   0.0000000   0.0000000   0.0000000
 NQMom=    0.0000000   0.0000000   0.0000000   0.0000000   0.0000000   0.0000000   0.0000000   0.0000000   0.0000000   0.0000000
 NMagM=    2.7928460   2.7928460   0.0000000   2.7928460   2.7928460   0.0000000   2.7928460   2.7928460   0.0000000   2.7928460
 AtZNuc=   1.0000000   1.0000000   8.0000000   1.0000000   1.0000000   8.0000000   1.0000000   1.0000000   8.0000000   1.0000000

  Atom       361         362         363         364         365         366         367         368         369         370
 IAtWgt=           1          16           1           1          16           1           1          16           1           1
 AtmWgt=   1.0078250  15.9949146   1.0078250   1.0078250  15.9949146   1.0078250   1.0078250  15.9949146   1.0078250   1.0078250
 NucSpn=           1           0           1           1           0           1           1           0           1           1
 AtZEff=   0.0000000   0.0000000   0.0000000   0.0000000   0.0000000   0.0000000   0.0000000   0.0000000   0.0000000   0.0000000
 NQMom=    0.0000000   0.0000000   0.0000000   0.0000000   0.0000000   0.0000000   0.0000000   0.0000000   0.0000000   0.0000000
 NMagM=    2.7928460   0.0000000   2.7928460   2.7928460   0.0000000   2.7928460   2.7928460   0.0000000   2.7928460   2.7928460
 AtZNuc=   1.0000000   8.0000000   1.0000000   1.0000000   8.0000000   1.0000000   1.0000000   8.0000000   1.0000000   1.0000000

  Atom       371         372         373         374         375         376         377         378         379         380
 IAtWgt=          16           1           1          16           1           1          16           1           1          16
 AtmWgt=  15.9949146   1.0078250   1.0078250  15.9949146   1.0078250   1.0078250  15.9949146   1.0078250   1.0078250  15.9949146
 NucSpn=           0           1           1           0           1           1           0           1           1           0
 AtZEff=   0.0000000   0.0000000   0.0000000   0.0000000   0.0000000   0.0000000   0.0000000   0.0000000   0.0000000   0.0000000
 NQMom=    0.0000000   0.0000000   0.0000000   0.0000000   0.0000000   0.0000000   0.0000000   0.0000000   0.0000000   0.0000000
 NMagM=    0.0000000   2.7928460   2.7928460   0.0000000   2.7928460   2.7928460   0.0000000   2.7928460   2.7928460   0.0000000
 AtZNuc=   8.0000000   1.0000000   1.0000000   8.0000000   1.0000000   1.0000000   8.0000000   1.0000000   1.0000000   8.0000000

  Atom       381         382         383         384         385
 IAtWgt=           1           1          16           1           1
 AtmWgt=   1.0078250   1.0078250  15.9949146   1.0078250   1.0078250
 NucSpn=           1           1           0           1           1
 AtZEff=   0.0000000   0.0000000   0.0000000   0.0000000   0.0000000
 NQMom=    0.0000000   0.0000000   0.0000000   0.0000000   0.0000000
 NMagM=    2.7928460   2.7928460   0.0000000   2.7928460   2.7928460
 AtZNuc=   1.0000000   1.0000000   8.0000000   1.0000000   1.0000000
 Leave Link  101 at Sun May  6 20:19:00 2018, MaxMem= 14763950080 cpu:        33.3
 (Enter /cm/shared/gaussian/g09.e01/intel64-sandybridge/g09/l103.exe)

 GradGradGradGradGradGradGradGradGradGradGradGradGradGradGradGradGradGrad
 Berny optimization.
 Initialization pass.
 Trust Radius=3.00D-01 FncErr=1.00D-07 GrdErr=1.00D-07
 Number of steps in this run=      2 maximum allowed number of steps=      2.
 GradGradGradGradGradGradGradGradGradGradGradGradGradGradGradGradGradGrad

 Leave Link  103 at Sun May  6 20:19:00 2018, MaxMem= 14763950080 cpu:         3.8
 (Enter /cm/shared/gaussian/g09.e01/intel64-sandybridge/g09/l202.exe)
 Symmetry turned off by external request.
 Stoichiometry    BrH256O128(1-)
 Framework group  C1[X(BrH256O128)]
 Deg. of freedom  1149
 Full point group                 C1      NOp   1
                          Input orientation:                          
 ---------------------------------------------------------------------
 Center     Atomic      Atomic             Coordinates (Angstroms)
 Number     Number       Type             X           Y           Z
 ---------------------------------------------------------------------
      1         35           0       20.000000   20.000000   20.000000
      2          8           0       19.810000   17.070000   18.880000
      3          1           0       19.820000   18.020000   19.030000
      4          1           0       19.450000   16.700000   19.680000
      5          8           0       22.850000   19.530000   18.600000
      6          1           0       23.530000   19.330000   19.230000
      7          1           0       22.050000   19.590000   19.120000
      8          8           0       22.490000   18.560000   21.530000
      9          1           0       22.570000   17.620000   21.370000
     10          1           0       21.670000   18.800000   21.090000
     11          8           0       19.410000   19.280000   23.020000
     12          1           0       19.980000   19.270000   22.250000
     13          1           0       18.670000   19.820000   22.760000
     14          8           0       17.020000   19.100000   18.780000
     15          1           0       17.220000   18.440000   18.120000
     16          1           0       17.870000   19.450000   19.040000
     17          8           0       19.690000   23.220000   20.060000
     18          1           0       19.000000   23.200000   20.730000
     19          1           0       20.190000   22.410000   20.210000
     20          8           0       22.340000   22.060000   21.300000
     21          1           0       21.710000   22.440000   21.910000
     22          1           0       21.850000   21.390000   20.830000
     23          8           0       21.010000   21.520000   16.790000
     24          1           0       20.110000   21.550000   16.450000
     25          1           0       20.930000   21.050000   17.620000
     26          8           0       17.820000   22.420000   17.920000
     27          1           0       18.040000   21.940000   17.120000
     28          1           0       18.260000   21.940000   18.620000
     29          8           0       22.090000   16.440000   17.610000
     30          1           0       22.710000   17.150000   17.760000
     31          1           0       21.250000   16.790000   17.890000
     32          8           0       15.840000   22.310000   20.590000
     33          1           0       16.350000   23.030000   20.220000
     34          1           0       16.470000   21.800000   21.100000
     35          8           0       23.070000   19.550000   16.020000
     36          1           0       22.950000   19.660000   16.960000
     37          1           0       22.780000   20.390000   15.640000
     38          8           0       19.450000   16.120000   23.240000
     39          1           0       19.130000   17.010000   23.110000
     40          1           0       20.080000   16.180000   23.960000
     41          8           0       20.230000   24.760000   17.620000
     42          1           0       21.170000   24.910000   17.640000
     43          1           0       20.080000   24.090000   18.290000
     44          8           0       20.490000   23.130000   23.130000
     45          1           0       20.970000   23.560000   23.840000
     46          1           0       19.780000   23.740000   22.920000
     47          8           0       17.920000   18.160000   16.380000
     48          1           0       17.280000   17.470000   16.220000
     49          1           0       17.550000   18.940000   15.960000
     50          8           0       22.940000   18.700000   24.370000
     51          1           0       23.850000   18.980000   24.430000
     52          1           0       22.750000   18.700000   23.430000
     53          8           0       18.680000   15.190000   17.150000
     54          1           0       19.380000   14.540000   17.070000
     55          1           0       19.130000   15.990000   17.410000
     56          8           0       22.730000   23.990000   17.420000
     57          1           0       22.290000   23.220000   17.050000
     58          1           0       23.390000   23.620000   18.010000
     59          8           0       18.690000   21.140000   15.310000
     60          1           0       18.800000   21.630000   14.500000
     61          1           0       17.960000   20.550000   15.130000
     62          8           0       17.590000   23.710000   22.350000
     63          1           0       17.460000   24.060000   23.240000
     64          1           0       17.390000   24.450000   21.780000
     65          8           0       16.240000   17.160000   22.440000
     66          1           0       16.850000   17.510000   23.090000
     67          1           0       16.790000   16.630000   21.860000
     68          8           0       19.640000   19.770000   25.920000
     69          1           0       20.470000   19.510000   26.320000
     70          1           0       19.740000   19.540000   24.990000
     71          8           0       14.230000   19.270000   18.530000
     72          1           0       14.030000   20.190000   18.340000
     73          1           0       15.180000   19.250000   18.670000
     74          8           0       16.930000   24.940000   19.260000
     75          1           0       16.270000   25.080000   18.590000
     76          1           0       17.500000   24.260000   18.900000
     77          8           0       24.720000   22.630000   18.740000
     78          1           0       24.690000   23.110000   19.560000
     79          1           0       24.690000   21.710000   19.000000
     80          8           0       25.250000   20.190000   20.090000
     81          1           0       24.990000   20.270000   21.010000
     82          1           0       26.060000   19.670000   20.110000
     83          8           0       19.420000   14.710000   20.940000
     84          1           0       19.560000   13.810000   21.220000
     85          1           0       19.360000   15.210000   21.760000
     86          8           0       25.020000   22.730000   21.670000
     87          1           0       25.360000   22.890000   22.550000
     88          1           0       24.070000   22.680000   21.790000
     89          8           0       17.010000   15.600000   20.240000
     90          1           0       16.450000   14.830000   20.150000
     91          1           0       17.900000   15.250000   20.300000
     92          8           0       22.890000   15.630000   21.400000
     93          1           0       22.300000   14.900000   21.590000
     94          1           0       23.650000   15.230000   20.980000
     95          8           0       24.950000   17.350000   19.060000
     96          1           0       25.890000   17.180000   19.030000
     97          1           0       24.710000   17.200000   19.970000
     98          8           0       15.470000   16.540000   18.290000
     99          1           0       15.200000   17.230000   18.900000
    100          1           0       16.230000   16.130000   18.700000
    101          8           0       21.080000   17.450000   14.680000
    102          1           0       20.480000   18.160000   14.440000
    103          1           0       21.880000   17.900000   14.960000
    104          8           0       21.350000   25.810000   20.700000
    105          1           0       21.430000   25.420000   21.570000
    106          1           0       22.180000   25.610000   20.270000
    107          8           0       21.910000   16.250000   24.890000
    108          1           0       22.210000   17.110000   24.590000
    109          1           0       22.720000   15.760000   25.040000
    110          8           0       17.980000   24.220000   15.600000
    111          1           0       18.820000   24.570000   15.910000
    112          1           0       17.510000   23.990000   16.400000
    113          8           0       26.240000   19.710000   17.590000
    114          1           0       25.780000   19.460000   18.400000
    115          1           0       25.700000   20.410000   17.220000
    116          8           0       13.710000   21.900000   18.570000
    117          1           0       13.220000   22.710000   18.420000
    118          1           0       14.430000   22.160000   19.150000
    119          8           0       20.940000   13.610000   18.450000
    120          1           0       21.440000   14.390000   18.210000
    121          1           0       20.610000   13.810000   19.330000
    122          8           0       24.600000   17.220000   16.030000
    123          1           0       24.670000   16.890000   16.930000
    124          1           0       24.380000   18.150000   16.140000
    125          8           0       15.320000   24.240000   17.110000
    126          1           0       14.370000   24.360000   17.140000
    127          1           0       15.460000   23.330000   17.380000
    128          8           0       19.140000   26.760000   19.530000
    129          1           0       18.510000   26.040000   19.430000
    130          1           0       19.920000   26.340000   19.880000
    131          8           0       23.260000   22.120000   14.300000
    132          1           0       22.350000   22.020000   14.570000
    133          1           0       23.250000   22.860000   13.690000
    134          8           0       13.690000   18.060000   22.310000
    135          1           0       13.530000   17.880000   23.240000
    136          1           0       14.550000   17.670000   22.140000
    137          8           0       16.220000   19.830000   14.840000
    138          1           0       15.960000   19.420000   14.010000
    139          1           0       15.530000   19.580000   15.450000
    140          8           0       14.330000   18.420000   16.180000
    141          1           0       13.490000   17.970000   16.130000
    142          1           0       14.430000   18.640000   17.110000
    143          8           0       25.560000   18.990000   23.590000
    144          1           0       25.590000   18.370000   22.860000
    145          1           0       26.470000   19.090000   23.870000
    146          8           0       15.080000   21.460000   24.300000
    147          1           0       15.620000   20.860000   24.820000
    148          1           0       14.220000   21.050000   24.290000
    149          8           0       18.570000   15.570000   14.450000
    150          1           0       18.400000   15.530000   15.390000
    151          1           0       19.320000   16.170000   14.370000
    152          8           0       16.530000   14.780000   23.660000
    153          1           0       16.260000   15.620000   23.300000
    154          1           0       15.830000   14.520000   24.250000
    155          8           0       13.990000   24.060000   22.140000
    156          1           0       14.450000   24.810000   21.740000
    157          1           0       14.590000   23.330000   22.030000
    158          8           0       25.700000   16.320000   22.180000
    159          1           0       26.190000   16.190000   22.990000
    160          1           0       24.820000   15.990000   22.380000
    161          8           0       20.910000   20.850000   13.400000
    162          1           0       21.410000   20.380000   12.740000
    163          1           0       20.080000   21.080000   12.970000
    164          8           0       22.710000   14.320000   15.590000
    165          1           0       23.530000   14.090000   16.010000
    166          1           0       22.340000   15.020000   16.140000
    167          8           0       23.980000   25.560000   19.590000
    168          1           0       24.880000   25.750000   19.340000
    169          1           0       23.470000   25.690000   18.790000
    170          8           0       22.260000   18.640000   27.060000
    171          1           0       21.510000   18.060000   27.210000
    172          1           0       22.480000   18.510000   26.140000
    173          8           0       12.740000   20.690000   21.160000
    174          1           0       13.240000   21.020000   20.420000
    175          1           0       13.330000   20.090000   21.600000
    176          8           0       13.970000   21.840000   15.450000
    177          1           0       14.830000   21.560000   15.780000
    178          1           0       13.820000   21.290000   14.680000
    179          8           0       20.900000   25.250000   24.480000
    180          1           0       21.710000   25.700000   24.700000
    181          1           0       20.330000   25.920000   24.100000
    182          8           0       16.740000   24.290000   24.930000
    183          1           0       16.140000   23.630000   24.560000
    184          1           0       16.270000   25.110000   24.830000
    185          8           0       16.900000   17.170000   25.660000
    186          1           0       17.670000   16.800000   26.090000
    187          1           0       16.210000   16.520000   25.810000
    188          8           0       24.960000   23.110000   24.440000
    189          1           0       24.920000   23.730000   25.170000
    190          1           0       24.660000   22.290000   24.810000
    191          8           0       20.480000   23.630000   26.900000
    192          1           0       20.940000   22.880000   26.510000
    193          1           0       20.720000   24.370000   26.350000
    194          8           0       20.130000   27.200000   16.300000
    195          1           0       20.800000   26.820000   15.730000
    196          1           0       19.880000   26.480000   16.890000
    197          8           0       16.450000   26.010000   21.760000
    198          1           0       16.590000   26.320000   20.870000
    199          1           0       15.710000   26.530000   22.080000
    200          8           0       17.670000   20.420000   27.760000
    201          1           0       18.240000   20.200000   27.020000
    202          1           0       17.580000   21.370000   27.730000
    203          8           0       27.480000   23.300000   20.830000
    204          1           0       27.400000   23.830000   21.630000
    205          1           0       26.630000   22.870000   20.740000
    206          8           0       26.850000   23.460000   17.080000
    207          1           0       27.350000   24.130000   17.550000
[...]
   Z336      47.37543  -0.00069   0.00000  -0.00198  -0.00204  47.37340
   X337      23.79165  -0.00033   0.00000   0.00185   0.00188  23.79353
   Y337      36.49061  -0.00867   0.00000  -0.00344  -0.00418  36.48643
   Z337      47.88566   0.00740   0.00000   0.00786   0.00763  47.89329
   X338      35.26229   0.00990   0.00000   0.00681   0.00693  35.26922
   Y338      24.66093  -0.01484   0.00000  -0.01326  -0.01228  24.64864
   Z338      25.22784  -0.01261   0.00000  -0.00407  -0.00514  25.22270
   X339      34.24184  -0.00486   0.00000  -0.00422  -0.00408  34.23776
   Y339      23.35702  -0.00843   0.00000  -0.00973  -0.00881  23.34820
   Z339      25.94594   0.00538   0.00000   0.00724   0.00607  25.95201
   X340      34.82765   0.00175   0.00000   0.00937   0.00948  34.83714
   Y340      26.13491   0.02109   0.00000   0.01621   0.01711  26.15203
   Z340      26.17271   0.00719   0.00000  -0.00005  -0.00102  26.17169
   X341      20.01220  -0.00136   0.00000  -0.00406  -0.00402  20.00818
   Y341      33.61823  -0.00561   0.00000  -0.00362  -0.00392  33.61431
   Z341      40.81808   0.01766   0.00000   0.01696   0.01654  40.83462
   X342      19.21851   0.00403   0.00000   0.00925   0.00929  19.22780
   Y342      34.29853   0.00285   0.00000   0.00060   0.00040  34.29893
   Z342      39.34410  -0.00843   0.00000  -0.00311  -0.00349  39.34061
   X343      21.76965  -0.00350   0.00000  -0.00685  -0.00680  21.76284
   Y343      33.46705   0.00611   0.00000   0.00994   0.00970  33.47675
   Z343      40.34565  -0.00390   0.00000  -0.00293  -0.00336  40.34229
   X344      51.43835   0.01948   0.00000   0.01311   0.01319  51.45153
   Y344      29.38524  -0.00814   0.00000  -0.00713  -0.00630  29.37894
   Z344      30.17893   0.01512   0.00000   0.01364   0.01287  30.19180
   X345      49.83208  -0.01456   0.00000  -0.00559  -0.00551  49.82657
   Y345      29.53642   0.00780   0.00000   0.00839   0.00925  29.54567
   Z345      29.38524  -0.00649   0.00000   0.00101   0.00025  29.38549
   X346      52.34541  -0.00438   0.00000  -0.00678  -0.00672  52.33869
   Y346      30.87813   0.00413   0.00000   0.00315   0.00402  30.88214
   Z346      29.66870  -0.00375   0.00000  -0.00355  -0.00422  29.66448
   X347      19.93661  -0.02092   0.00000  -0.01315  -0.01320  19.92341
   Y347      41.64956   0.01499   0.00000   0.01427   0.01394  41.66351
   Z347      41.36611   0.00406   0.00000   0.00150   0.00163  41.36774
   X348      19.55867   0.00257   0.00000   0.00148   0.00145  19.56011
   Y348      40.25117  -0.00264   0.00000  -0.00003  -0.00044  40.25072
   Z348      42.46215  -0.00277   0.00000  -0.00607  -0.00603  42.45611
   X349      21.56178   0.01582   0.00000   0.00718   0.00713  21.56891
   Y349      41.25272  -0.01467   0.00000  -0.01742  -0.01769  41.23504
   Z349      40.68580  -0.00003   0.00000   0.00654   0.00665  40.69245
   X350      23.79165   0.01373   0.00000   0.01122   0.01110  23.80275
   Y350      46.26050  -0.01302   0.00000  -0.00826  -0.00800  46.25249
   Z350      33.56154  -0.00291   0.00000  -0.00579  -0.00534  33.55620
   X351      23.26253  -0.00466   0.00000  -0.00183  -0.00196  23.26057
   Y351      47.81007   0.00951   0.00000   0.00046   0.00066  47.81073
   Z351      34.31743   0.01091   0.00000   0.01207   0.01263  34.33006
   X352      22.58223  -0.00720   0.00000  -0.00564  -0.00576  22.57647
   Y352      45.93924  -0.00143   0.00000  -0.00193  -0.00159  45.93765
   Z352      32.25763  -0.00682   0.00000  -0.00557  -0.00514  32.25249
   X353      28.08133  -0.01529   0.00000  -0.00755  -0.00774  28.07359
   Y353      52.60998  -0.00328   0.00000  -0.00637  -0.00607  52.60391
   Z353      33.63713   0.01091   0.00000   0.01060   0.01149  33.64862
   X354      29.32855   0.01041   0.00000   0.00542   0.00524  29.33379
   Y354      51.64622  -0.00336   0.00000   0.00099   0.00137  51.64759
   Z354      32.76785  -0.01167   0.00000  -0.01351  -0.01270  32.75516
   X355      28.89391   0.00711   0.00000   0.00674   0.00653  28.90044
   Y355      54.19735   0.00400   0.00000  -0.00033  -0.00004  54.19731
   Z355      33.95838  -0.00093   0.00000  -0.00285  -0.00185  33.95653
   X356      50.28561  -0.00591   0.00000  -0.00601  -0.00616  50.27945
   Y356      49.24626  -0.01081   0.00000  -0.00533  -0.00487  49.24139
   Z356      35.33788  -0.00414   0.00000   0.00044   0.00106  35.33894
   X357      50.47459   0.00960   0.00000   0.01582   0.01566  50.49025
   Y357      49.77539   0.00129   0.00000  -0.00267  -0.00233  49.77305
   Z357      37.05753   0.01688   0.00000   0.01442   0.01508  37.07261
   X358      50.68245  -0.00042   0.00000  -0.00343  -0.00360  50.67885
   Y358      50.72025   0.00711   0.00000   0.00232   0.00285  50.72310
   Z358      34.37412  -0.00891   0.00000  -0.00984  -0.00912  34.36500
   X359      40.66691   0.01480   0.00000   0.00658   0.00672  40.67363
   Y359      23.52709  -0.00942   0.00000  -0.00614  -0.00518  23.52191
   Z359      26.38058  -0.00954   0.00000  -0.01418  -0.01534  26.36524
   X360      41.30941   0.00016   0.00000  -0.00112  -0.00100  41.30841
   Y360      25.19005   0.00488   0.00000  -0.00009   0.00086  25.19091
   Z360      26.73962   0.00856   0.00000   0.01452   0.01347  26.75310
   X361      38.87167  -0.01926   0.00000  -0.01371  -0.01357  38.85810
   Y361      23.73496   0.00594   0.00000   0.00598   0.00693  23.74189
   Z361      26.30499  -0.00587   0.00000  -0.00940  -0.01054  26.29445
   X362      21.29721   0.00077   0.00000   0.00302   0.00291  21.30012
   Y362      46.56285   0.02036   0.00000   0.01230   0.01211  46.57496
   Z362      39.55197  -0.01494   0.00000  -0.02113  -0.02065  39.53132
   X363      20.44684  -0.00553   0.00000  -0.00273  -0.00282  20.44401
   Y363      44.99438  -0.01291   0.00000  -0.00324  -0.00345  44.99093
   Z363      39.81653   0.00813   0.00000   0.01052   0.01089  39.82742
   X364      23.03576   0.00568   0.00000   0.00166   0.00156  23.03732
   Y364      46.22270  -0.00759   0.00000  -0.00869  -0.00889  46.21381
   Z364      39.94881   0.00826   0.00000   0.01188   0.01233  39.96114
   X365      26.26719  -0.00864   0.00000  -0.00949  -0.00947  26.25772
   Y365      33.50484   0.01939   0.00000   0.01627   0.01724  33.52208
   Z365      23.84834  -0.01252   0.00000  -0.00316  -0.00360  23.84475
   X366      27.19316   0.01283   0.00000   0.01197   0.01200  27.20516
   Y366      32.82454  -0.00895   0.00000  -0.00598  -0.00510  32.81944
   Z366      25.22784   0.01110   0.00000   0.00172   0.00123  25.22908
   X367      24.96328  -0.00305   0.00000  -0.00049  -0.00046  24.96282
   Y367      32.29542  -0.00645   0.00000  -0.00584  -0.00487  32.29055
   Z367      23.52709  -0.00032   0.00000  -0.00033  -0.00086  23.52623
   X368      41.30941  -0.00746   0.00000  -0.00883  -0.00885  41.30056
   Y368      36.43392   0.00933   0.00000   0.00665   0.00799  36.44191
   Z368      20.99486   0.01162   0.00000   0.00641   0.00615  21.00101
   X369      40.51573  -0.00214   0.00000   0.00035   0.00035  40.51608
   Y369      34.84655  -0.00968   0.00000  -0.00897  -0.00761  34.83894
   Z369      20.67360  -0.00011   0.00000   0.00270   0.00233  20.67594
   X370      42.38656   0.01078   0.00000   0.01065   0.01063  42.39719
   Y370      36.69848   0.00185   0.00000   0.00100   0.00245  36.70094
   Z370      19.57756  -0.00622   0.00000   0.00133   0.00108  19.57864
   X371      45.20225   0.01116   0.00000   0.00651   0.00630  45.20855
   Y371      53.29028   0.00071   0.00000  -0.00210  -0.00146  53.28881
   Z371      31.76630   0.01788   0.00000   0.01215   0.01306  31.77936
   X372      45.88255   0.00039   0.00000  -0.00071  -0.00093  45.88162
   Y372      54.36742   0.00185   0.00000  -0.00185  -0.00111  54.36631
   Z372      30.48128  -0.00647   0.00000  -0.00421  -0.00323  30.47805
   X373      43.74716  -0.01157   0.00000  -0.00525  -0.00544  43.74172
   Y373      52.53439  -0.00649   0.00000  -0.00516  -0.00448  52.52990
   Z373      31.01041  -0.01034   0.00000  -0.00874  -0.00789  31.00252
   X374      32.93793   0.01551   0.00000   0.00986   0.00992  32.94785
   Y374      34.27963  -0.01196   0.00000  -0.00226  -0.00342  34.27621
   Z374      55.44456  -0.00164   0.00000  -0.00441  -0.00481  55.43975
   X375      31.40725  -0.01274   0.00000  -0.00687  -0.00681  31.40044
   Y375      34.39302  -0.00034   0.00000  -0.00242  -0.00366  34.38936
   Z375      56.37053   0.00589   0.00000   0.00218   0.00179  56.37232
   X376      32.90013  -0.00090   0.00000   0.00021   0.00025  32.90038
   Y376      35.69693   0.02200   0.00000   0.02582   0.02474  35.72167
   Z376      54.31073  -0.00517   0.00000   0.00167   0.00137  54.31210
   X377      26.56955   0.00792   0.00000   0.00925   0.00935  26.57890
   Y377      30.00885  -0.00467   0.00000  -0.00179  -0.00255  30.00631
   Z377      48.54706  -0.01404   0.00000  -0.00679  -0.00747  48.53959
   X378      25.24674  -0.00194   0.00000   0.00097   0.00105  25.24779
   Y378      31.19938   0.00230   0.00000   0.00045  -0.00029  31.19909
   Z378      48.18802   0.00097   0.00000   0.00138   0.00078  48.18880
   X379      26.68293  -0.00233   0.00000  -0.00390  -0.00380  26.67914
   Y379      29.98995   0.00105   0.00000   0.00131   0.00043  29.99039
   Z379      50.34230   0.01461   0.00000   0.01019   0.00950  50.35180
   X380      34.37412  -0.00428   0.00000  -0.00002  -0.00022  34.37390
   Y380      52.60998   0.00649   0.00000  -0.00252  -0.00168  52.60830
   Z380      27.06088  -0.02116   0.00000  -0.02038  -0.01951  27.04137
   X381      32.95682  -0.00802   0.00000  -0.00679  -0.00698  32.94984
   Y381      51.81629  -0.00250   0.00000   0.00095   0.00172  51.81801
   Z381      27.85456   0.00214   0.00000  -0.00324  -0.00242  27.85215
   X382      35.79141   0.00907   0.00000   0.00149   0.00129  35.79271
   Y382      52.11865  -0.00317   0.00000   0.00067   0.00145  52.12010
   Z382      28.06243   0.01608   0.00000   0.01571   0.01655  28.07898
   X383      45.73137  -0.01462   0.00000  -0.00570  -0.00589  45.72549
   Y383      52.96902   0.00369   0.00000   0.00344   0.00342  52.97244
   Z383      41.38500   0.00840   0.00000   0.00998   0.01087  41.39587
   X384      47.31874   0.01584   0.00000   0.01057   0.01040  47.32914
   Y384      52.09975  -0.00959   0.00000  -0.00830  -0.00831  52.09144
   Z384      41.36611  -0.00546   0.00000  -0.00981  -0.00899  41.35711
   X385      46.09042  -0.00041   0.00000  -0.00286  -0.00307  46.08735
   Y385      54.55639   0.00597   0.00000   0.00508   0.00511  54.56150
   Z385      40.59132  -0.00187   0.00000  -0.00090   0.00009  40.59141
         Item               Value     Threshold  Converged?
 Maximum Force            0.033881     0.000450     NO 
 RMS     Force            0.010264     0.000300     NO 
 Maximum Displacement     0.029089     0.001800     NO 
 RMS     Displacement     0.008838     0.001200     NO 
 Predicted change in Energy=-7.164894D-02
 GradGradGradGradGradGradGradGradGradGradGradGradGradGradGradGradGradGrad

 Leave Link  103 at Sun May  6 22:59:11 2018, MaxMem= 14763950080 cpu:      2762.1
 (Enter /cm/shared/gaussian/g09.e01/intel64-sandybridge/g09/l9999.exe)
 1\1\GINC-POPLE04\Force\RPBE1PBE\CC-pVDZ\Br1H256O128(1-)\M.PELUSO\06-Ma
 y-2018\0\\#p PBE1PBE/cc-pvDZ force Counterpoise=2 noSymm\\forces on ch
 loride comput - NWATER: 128\\-1,1\Br,20.,20.,20.\O,19.81,17.07,18.88\H
 ,19.82,18.02,19.03\H,19.45,16.7,19.68\O,22.85,19.53,18.6\H,23.53,19.33
 ,19.23\H,22.05,19.59,19.12\O,22.49,18.56,21.53\H,22.57,17.62,21.37\H,2
 1.67,18.8,21.09\O,19.41,19.28,23.02\H,19.98,19.27,22.25\H,18.67,19.82,
 22.76\O,17.02,19.1,18.78\H,17.22,18.44,18.12\H,17.87,19.45,19.04\O,19.
 69,23.22,20.06\H,19.,23.2,20.73\H,20.19,22.41,20.21\O,22.34,22.06,21.3
 \H,21.71,22.44,21.91\H,21.85,21.39,20.83\O,21.01,21.52,16.79\H,20.11,2
 1.55,16.45\H,20.93,21.05,17.62\O,17.82,22.42,17.92\H,18.04,21.94,17.12
 \H,18.26,21.94,18.62\O,22.09,16.44,17.61\H,22.71,17.15,17.76\H,21.25,1
 6.79,17.89\O,15.84,22.31,20.59\H,16.35,23.03,20.22\H,16.47,21.8,21.1\O
 ,23.07,19.55,16.02\H,22.95,19.66,16.96\H,22.78,20.39,15.64\O,19.45,16.
 12,23.24\H,19.13,17.01,23.11\H,20.08,16.18,23.96\O,20.23,24.76,17.62\H
 ,21.17,24.91,17.64\H,20.08,24.09,18.29\O,20.49,23.13,23.13\H,20.97,23.
 56,23.84\H,19.78,23.74,22.92\O,17.92,18.16,16.38\H,17.28,17.47,16.22\H
 ,17.55,18.94,15.96\O,22.94,18.7,24.37\H,23.85,18.98,24.43\H,22.75,18.7
 ,23.43\O,18.68,15.19,17.15\H,19.38,14.54,17.07\H,19.13,15.99,17.41\O,2
 2.73,23.99,17.42\H,22.29,23.22,17.05\H,23.39,23.62,18.01\O,18.69,21.14
 ,15.31\H,18.8,21.63,14.5\H,17.96,20.55,15.13\O,17.59,23.71,22.35\H,17.
 46,24.06,23.24\H,17.39,24.45,21.78\O,16.24,17.16,22.44\H,16.85,17.51,2
 3.09\H,16.79,16.63,21.86\O,19.64,19.77,25.92\H,20.47,19.51,26.32\H,19.
 74,19.54,24.99\O,14.23,19.27,18.53\H,14.03,20.19,18.34\H,15.18,19.25,1
 8.67\O,16.93,24.94,19.26\H,16.27,25.08,18.59\H,17.5,24.26,18.9\O,24.72
 ,22.63,18.74\H,24.69,23.11,19.56\H,24.69,21.71,19.\O,25.25,20.19,20.09
 \H,24.99,20.27,21.01\H,26.06,19.67,20.11\O,19.42,14.71,20.94\H,19.56,1
 3.81,21.22\H,19.36,15.21,21.76\O,25.02,22.73,21.67\H,25.36,22.89,22.55
 \H,24.07,22.68,21.79\O,17.01,15.6,20.24\H,16.45,14.83,20.15\H,17.9,15.
 25,20.3\O,22.89,15.63,21.4\H,22.3,14.9,21.59\H,23.65,15.23,20.98\O,24.
 95,17.35,19.06\H,25.89,17.18,19.03\H,24.71,17.2,19.97\O,15.47,16.54,18
 .29\H,15.2,17.23,18.9\H,16.23,16.13,18.7\O,21.08,17.45,14.68\H,20.48,1
 8.16,14.44\H,21.88,17.9,14.96\O,21.35,25.81,20.7\H,21.43,25.42,21.57\H
 ,22.18,25.61,20.27\O,21.91,16.25,24.89\H,22.21,17.11,24.59\H,22.72,15.
 76,25.04\O,17.98,24.22,15.6\H,18.82,24.57,15.91\H,17.51,23.99,16.4\O,2
 6.24,19.71,17.59\H,25.78,19.46,18.4\H,25.7,20.41,17.22\O,13.71,21.9,18
 .57\H,13.22,22.71,18.42\H,14.43,22.16,19.15\O,20.94,13.61,18.45\H,21.4
 4,14.39,18.21\H,20.61,13.81,19.33\O,24.6,17.22,16.03\H,24.67,16.89,16.
 93\H,24.38,18.15,16.14\O,15.32,24.24,17.11\H,14.37,24.36,17.14\H,15.46
 ,23.33,17.38\O,19.14,26.76,19.53\H,18.51,26.04,19.43\H,19.92,26.34,19.
 88\O,23.26,22.12,14.3\H,22.35,22.02,14.57\H,23.25,22.86,13.69\O,13.69,
 18.06,22.31\H,13.53,17.88,23.24\H,14.55,17.67,22.14\O,16.22,19.83,14.8
 4\H,15.96,19.42,14.01\H,15.53,19.58,15.45\O,14.33,18.42,16.18\H,13.49,
 17.97,16.13\H,14.43,18.64,17.11\O,25.56,18.99,23.59\H,25.59,18.37,22.8
 6\H,26.47,19.09,23.87\O,15.08,21.46,24.3\H,15.62,20.86,24.82\H,14.22,2
 1.05,24.29\O,18.57,15.57,14.45\H,18.4,15.53,15.39\H,19.32,16.17,14.37\
 O,16.53,14.78,23.66\H,16.26,15.62,23.3\H,15.83,14.52,24.25\O,13.99,24.
 06,22.14\H,14.45,24.81,21.74\H,14.59,23.33,22.03\O,25.7,16.32,22.18\H,
 26.19,16.19,22.99\H,24.82,15.99,22.38\O,20.91,20.85,13.4\H,21.41,20.38
 ,12.74\H,20.08,21.08,12.97\O,22.71,14.32,15.59\H,23.53,14.09,16.01\H,2
 2.34,15.02,16.14\O,23.98,25.56,19.59\H,24.88,25.75,19.34\H,23.47,25.69
 ,18.79\O,22.26,18.64,27.06\H,21.51,18.06,27.21\H,22.48,18.51,26.14\O,1
 2.74,20.69,21.16\H,13.24,21.02,20.42\H,13.33,20.09,21.6\O,13.97,21.84,
 15.45\H,14.83,21.56,15.78\H,13.82,21.29,14.68\O,20.9,25.25,24.48\H,21.
 71,25.7,24.7\H,20.33,25.92,24.1\O,16.74,24.29,24.93\H,16.14,23.63,24.5
 6\H,16.27,25.11,24.83\O,16.9,17.17,25.66\H,17.67,16.8,26.09\H,16.21,16
 .52,25.81\O,24.96,23.11,24.44\H,24.92,23.73,25.17\H,24.66,22.29,24.81\
 O,20.48,23.63,26.9\H,20.94,22.88,26.51\H,20.72,24.37,26.35\O,20.13,27.
 2,16.3\H,20.8,26.82,15.73\H,19.88,26.48,16.89\O,16.45,26.01,21.76\H,16
 .59,26.32,20.87\H,15.71,26.53,22.08\O,17.67,20.42,27.76\H,18.24,20.2,2
 7.02\H,17.58,21.37,27.73\O,27.48,23.3,20.83\H,27.4,23.83,21.63\H,26.63
 ,22.87,20.74\O,26.85,23.46,17.08\H,27.35,24.13,17.55\H,26.11,23.26,17.
 65\O,12.23,17.73,19.33\H,11.92,17.64,18.43\H,12.8,18.5,19.31\O,15.59,1
 9.55,26.41\H,16.05,20.07,27.07\H,16.16,18.8,26.26\O,24.65,20.92,26.09\
 H,24.72,21.24,26.99\H,24.18,20.09,26.17\O,25.05,25.57,16.12\H,24.9,26.
 32,16.7\H,24.63,24.84,16.57\O,24.45,13.55,17.85\H,24.32,13.21,18.74\H,
 24.75,14.45,17.99\O,20.68,14.29,26.45\H,20.06,14.68,27.06\H,20.86,14.9
 8,25.81\O,14.95,14.64,16.22\H,15.69,14.19,16.65\H,14.7,15.32,16.84\O,2
 4.91,13.99,20.46\H,25.65,14.39,20.91\H,24.96,13.07,20.69\O,15.7,16.22,
 14.05\H,14.99,15.91,14.62\H,16.48,15.8,14.4\O,26.,22.96,14.56\H,26.19,
 23.37,15.41\H,25.13,22.59,14.67\O,20.97,28.58,21.38\H,21.04,27.72,20.9
 5\H,21.88,28.84,21.53\O,17.52,23.15,27.19\H,18.46,23.04,27.07\H,17.24,
 23.65,26.42\O,18.79,26.89,23.73\H,18.76,27.07,24.67\H,17.87,26.75,23.4
 8\O,18.36,20.57,12.27\H,17.75,19.83,12.28\H,17.89,21.25,11.78\O,18.54,
 12.69,24.81\H,18.01,13.2,25.42\H,18.93,13.34,24.23\O,26.25,26.23,21.49
 \H,25.48,25.71,21.23\H,26.67,25.7,22.17\O,17.02,11.98,20.09\H,17.72,12
 .31,20.65\H,16.28,12.57,20.26\O,13.1,15.55,20.9\H,12.59,16.18,20.39\H,
 13.23,15.98,21.74\O,24.86,17.55,13.1\H,24.83,17.41,14.05\H,24.25,16.91
 ,12.74\O,24.42,15.54,25.17\H,24.88,14.71,25.06\H,24.8,15.92,25.95\O,21
 .78,12.59,23.28\H,22.38,11.85,23.23\H,22.18,13.19,23.91\O,14.86,13.34,
 20.74\H,14.31,12.85,20.13\H,14.39,14.15,20.9\O,19.47,12.08,21.94\H,19.
 02,11.45,22.49\H,20.33,12.18,22.34\O,11.59,19.95,16.78\H,12.4,20.44,16
 .91\H,11.18,20.36,16.01\O,17.09,18.3,12.48\H,17.85,18.08,11.95\H,16.64
 ,17.47,12.62\O,15.7,26.27,14.78\H,14.82,25.92,14.67\H,16.16,25.63,15.3
 1\O,22.23,26.7,14.7\H,22.43,25.78,14.55\H,22.63,27.15,13.96\O,27.21,15
 .96,19.05\H,27.62,15.7,18.23\H,27.82,16.57,19.45\O,25.15,20.19,12.47\H
 ,24.73,20.68,13.18\H,25.,19.27,12.69\O,28.36,20.85,16.07\H,27.51,20.55
 ,16.41\H,28.26,21.8,16.\O,27.17,24.34,23.21\H,27.75,24.25,23.96\H,26.2
 9,24.33,23.58\O,18.88,28.93,18.2\H,19.49,28.55,17.56\H,18.83,28.29,18.
 9\O,28.29,18.41,20.44\H,29.02,18.33,19.83\H,28.67,18.22,21.29\O,21.26,
 11.47,16.45\H,21.42,12.2,17.05\H,21.48,11.81,15.59\O,23.4,26.75,24.24\
 H,24.18,26.23,24.44\H,23.66,27.3,23.5\O,21.3,24.41,12.63\H,20.6,23.92,
 12.2\H,21.18,25.31,12.34\O,27.6,20.02,25.05\H,28.07,19.26,25.4\H,26.75
 ,20.,25.5\O,16.93,24.77,12.39\H,17.2,24.82,13.3\H,17.2,25.6,12.01\O,18
 .9,16.39,27.9\H,19.48,16.11,28.62\H,18.49,17.19,28.24\O,28.92,22.02,18
 .82\H,28.45,22.45,19.54\H,28.3,22.05,18.09\O,18.58,11.14,17.54\H,19.42
 ,11.57,17.68\H,18.07,11.35,18.32\O,23.24,15.18,12.64\H,23.,14.35,12.22
 \H,23.22,14.98,13.58\O,12.74,20.16,24.94\H,11.92,20.64,25.07\H,12.59,1
 9.31,25.34\O,18.66,13.05,13.35\H,18.12,12.36,13.73\H,18.43,13.83,13.85
 \O,10.59,17.79,21.6\H,10.17,18.15,20.82\H,11.52,17.71,21.35\O,27.22,15
 .55,15.97\H,26.37,15.63,15.55\H,27.7,16.34,15.7\O,10.55,22.04,21.89\H,
 10.35,21.3,22.47\H,11.41,21.83,21.53\O,12.59,24.48,17.76\H,12.31,25.3,
 18.16\H,11.95,24.31,17.07\O,14.86,27.84,17.8\H,15.52,27.33,17.34\H,15.
 29,28.68,17.97\O,26.61,26.06,18.7\H,26.71,26.34,19.61\H,26.82,26.84,18
 .19\O,21.52,12.45,13.96\H,21.86,13.33,14.15\H,20.57,12.56,13.92\O,11.2
 7,24.64,20.93\H,10.82,23.81,21.07\H,12.19,24.46,21.14\O,13.9,17.73,12.
 62\H,14.39,17.37,13.35\H,13.21,17.09,12.45\O,21.86,19.28,11.11\H,21.44
 ,18.44,10.94\H,22.43,19.42,10.36\O,23.92,28.2,16.81\H,24.28,28.77,16.1
 3\H,23.15,27.8,16.41\O,17.43,18.14,29.34\H,16.62,18.2,29.83\H,17.41,18
 .89,28.74\O,14.06,15.88,25.69\H,13.36,16.51,25.5\H,14.12,15.87,26.64\O
 ,18.19,27.84,14.32\H,17.44,27.42,14.74\H,18.94,27.58,14.85\O,24.2,28.0
 3,21.9\H,25.04,27.57,21.89\H,24.39,28.87,21.48\\Version=ES64L-G09RevE.
 01\HF=-9773.3486994\RMSD=1.860e-09\RMSF=1.026e-02\Dipole=4.8081893,0.1
 866952,18.181804\Quadrupole=-181.6348538,-708.3143138,889.9491676,-125
 6.8737437,-339.9840349,-776.9883081\PG=C01 [X(Br1H256O128)]\\@


 I DO NOT KNOW WHAT I MAY APPEAR TO THE WORLD; BUT TO MYSELF
 I SEEM TO HAVE BEEN ONLY LIKE A BOY PLAYING ON THE SEASHORE,
 AND DIVERTING MYSELF IN NOW AND THEN FINDING A SMOOTHER PEBBLE
 OR A PRETTIER SHELL THAN ORDINARY, WHILST THE GREAT OCEAN OF
 TRUTH LAY ALL UNDISCOVERED BEFORE ME.
                                          -- NEWTON (1642-1726)
 Job cpu time:       6 days 23 hours 50 minutes 31.7 seconds.
 File lengths (MBytes):  RWF=   7285 Int=      0 D2E=      0 Chk=   2411 Scr=      1
 Normal termination of Gaussian 09 at Sun May  6 22:59:33 2018.
