 Entering Gaussian System, Link 0=/cm/shared/gaussian/g09.e01/intel64-sandybridge/g09/g09
 Initial command:
 /cm/shared/gaussian/g09.e01/intel64-sandybridge/g09/l1.exe "/local/scratch/m.peluso/128_wat/300a/Gau-9731.inp" -scrdir="/local/scratch/m.peluso/128_wat/300a/"
 Entering Link 1 = /cm/shared/gaussian/g09.e01/intel64-sandybridge/g09/l1.exe PID=      9732.
  
 Copyright (c) 1988,1990,1992,1993,1995,1998,2003,2009,2015,
            Gaussian, Inc.  All Rights Reserved.
  
 This is part of the Gaussian(R) 09 program.  It is based on
 the Gaussian(R) 03 system (copyright 2003, Gaussian, Inc.),
 the Gaussian(R) 98 system (copyright 1998, Gaussian, Inc.),
 the Gaussian(R) 94 system (copyright 1995, Gaussian, Inc.),
 the Gaussian 92(TM) system (copyright 1992, Gaussian, Inc.),
 the Gaussian 90(TM) system (copyright 1990, Gaussian, Inc.),
 the Gaussian 88(TM) system (copyright 1988, Gaussian, Inc.),
 the Gaussian 86(TM) system (copyright 1986, Carnegie Mellon
 University), and the Gaussian 82(TM) system (copyright 1983,
 Carnegie Mellon University). Gaussian is a federally registered
 trademark of Gaussian, Inc.
  
 This software contains proprietary and confidential information,
 including trade secrets, belonging to Gaussian, Inc.
  
 This software is provided under written license and may be
 used, copied, transmitted, or stored only in accord with that
 written license.
  
 The following legend is applicable only to US Government
 contracts under FAR:
  
                    RESTRICTED RIGHTS LEGEND
  
 Use, reproduction and disclosure by the US Government is
 subject to restrictions as set forth in subparagraphs (a)
 and (c) of the Commercial Computer Software - Restricted
 Rights clause in FAR 52.227-19.
  
 Gaussian, Inc.
 340 Quinnipiac St., Bldg. 40, Wallingford CT 06492
  
  
 ---------------------------------------------------------------
 Warning -- This program may not be used in any manner that
 competes with the business of Gaussian, Inc. or will provide
 assistance to any competitor of Gaussian, Inc.  The licensee
 of this program is prohibited from giving any competitor of
 Gaussian, Inc. access to this program.  By using this program,
 the user acknowledges that Gaussian, Inc. is engaged in the
 business of creating and licensing software in the field of
 computational chemistry and represents and warrants to the
 licensee that it is not a competitor of Gaussian, Inc. and that
 it will not use this program in any manner prohibited above.
 ---------------------------------------------------------------
  

 Cite this work as:
 Gaussian 09, Revision E.01,
 M. J. Frisch, G. W. Trucks, H. B. Schlegel, G. E. Scuseria, 
 M. A. Robb, J. R. Cheeseman, G. Scalmani, V. Barone, B. Mennucci, 
 G. A. Petersson, H. Nakatsuji, M. Caricato, X. Li, H. P. Hratchian, 
 A. F. Izmaylov, J. Bloino, G. Zheng, J. L. Sonnenberg, M. Hada, 
 M. Ehara, K. Toyota, R. Fukuda, J. Hasegawa, M. Ishida, T. Nakajima, 
 Y. Honda, O. Kitao, H. Nakai, T. Vreven, J. A. Montgomery, Jr., 
 J. E. Peralta, F. Ogliaro, M. Bearpark, J. J. Heyd, E. Brothers, 
 K. N. Kudin, V. N. Staroverov, T. Keith, R. Kobayashi, J. Normand, 
 K. Raghavachari, A. Rendell, J. C. Burant, S. S. Iyengar, J. Tomasi, 
 M. Cossi, N. Rega, J. M. Millam, M. Klene, J. E. Knox, J. B. Cross, 
 V. Bakken, C. Adamo, J. Jaramillo, R. Gomperts, R. E. Stratmann, 
 O. Yazyev, A. J. Austin, R. Cammi, C. Pomelli, J. W. Ochterski, 
 R. L. Martin, K. Morokuma, V. G. Zakrzewski, G. A. Voth, 
 P. Salvador, J. J. Dannenberg, S. Dapprich, A. D. Daniels, 
 O. Farkas, J. B. Foresman, J. V. Ortiz, J. Cioslowski, 
 and D. J. Fox, Gaussian, Inc., Wallingford CT, 2013.
 
 ******************************************
 Gaussian 09:  ES64L-G09RevE.01 30-Nov-2015
                 5-May-2018 
 ******************************************
 %Mem=110GB
 %NProcShared=64
 Will use up to   64 processors via shared memory.
 %chk=snap7.chk
 ----------------------------------------------
 #p PBE1PBE/cc-pvDZ force Counterpoise=2 noSymm
 ----------------------------------------------
 1/10=7,30=1,38=1,62=2/1,3;
 2/12=2,15=1,17=6,18=5,40=1/2;
 1/10=7,30=1,38=1,53=2,62=2,63=101/22;
 3/5=16,11=2,16=1,25=1,30=1,71=1,74=-13/1,2,3;
 4//1;
 5/5=2,38=5/2;
 6/7=2,8=2,9=2,10=2,28=1/1;
 7/7=1,29=1,30=1,33=-1/1,2,3,16;
 1/10=7,30=1,53=2,62=2,63=101/22;
 3/5=7,6=11,11=2,16=1,25=1,30=1,71=1,74=-13,82=7/1,2,3;
 4//1;
 5/5=2,38=5/2;
 6/7=2,8=2,9=2,10=2,28=1/1;
 7/7=1,29=1,30=1,33=-1/1,2,3,16;
 1/10=7,30=1,53=2,62=2,63=101/22(-5);
 7/9=1,29=1,44=-1/16;
 1/10=7,30=1,62=2/3;
 99//99;
 Leave Link    1 at Sat May  5 22:06:30 2018, MaxMem= 14763950080 cpu:         7.8
 (Enter /cm/shared/gaussian/g09.e01/intel64-sandybridge/g09/l101.exe)
 ---------------------------------------
 forces on chloride comput - NWATER: 128
 ---------------------------------------
 Symbolic Z-matrix:
 Charge = -1 Multiplicity = 1 in supermolecule
 Charge = -1 Multiplicity = 1 in fragment      1.
 Charge =  0 Multiplicity = 1 in fragment      2.
 Br(Fragment=1)        20.       20.       20. 
 O(Fragment=2)         21.98     19.33     22.33 
 H(Fragment=2)         21.34     19.56     21.65 
 H(Fragment=2)         21.71     18.46     22.62 
 O(Fragment=2)         17.5      21.09     21.68 
 H(Fragment=2)         18.25     20.7      21.22 
 H(Fragment=2)         17.23     20.42     22.31 
 O(Fragment=2)         19.43     17.78     17.67 
 H(Fragment=2)         19.78     18.29     18.41 
 H(Fragment=2)         19.44     16.88     17.98 
 O(Fragment=2)         20.53     16.82     20.39 
 H(Fragment=2)         19.95     17.54     20.62 
 H(Fragment=2)         21.38     17.24     20.21 
 O(Fragment=2)         20.5      23.46     20.22 
 H(Fragment=2)         20.       22.65     20.13 
 H(Fragment=2)         20.75     23.49     21.15 
 O(Fragment=2)         18.95     22.85     17.63 
 H(Fragment=2)         18.92     23.79     17.46 
 H(Fragment=2)         19.79     22.71     18.07 
 O(Fragment=2)         16.57     21.67     18.78 
 H(Fragment=2)         16.96     22.11     19.54 
 H(Fragment=2)         17.3      21.56     18.17 
 O(Fragment=2)         19.52     19.41     15.68 
 H(Fragment=2)         20.4      19.79     15.69 
 H(Fragment=2)         19.51     18.81     16.42 
 O(Fragment=2)         23.55     18.61     17.83 
 H(Fragment=2)         22.98     19.37     17.7 
 H(Fragment=2)         23.31     18.26     18.68 
 O(Fragment=2)         21.02     20.77     24.38 
 H(Fragment=2)         21.53     21.58     24.43 
 H(Fragment=2)         21.34     20.33     23.59 
 O(Fragment=2)         16.82     16.91     18.98 
 H(Fragment=2)         17.77     16.97     18.93 
 H(Fragment=2)         16.52     17.81     18.8 
 O(Fragment=2)         22.88     22.35     22.45 
 H(Fragment=2)         22.98     22.31     21.5 
 H(Fragment=2)         21.95     22.21     22.6 
 O(Fragment=2)         24.31     20.36     21.34 
 H(Fragment=2)         24.01     21.02     20.71 
 H(Fragment=2)         23.52     20.08     21.79 
 O(Fragment=2)         23.49     17.58     20.26 
 H(Fragment=2)         23.64     17.17     21.11 
 H(Fragment=2)         23.82     18.47     20.37 
 O(Fragment=2)         23.65     22.52     19.94 
 H(Fragment=2)         23.3      23.24     19.43 
 H(Fragment=2)         24.49     22.31     19.53 
 O(Fragment=2)         14.94     20.02     20.62 
 H(Fragment=2)         14.68     20.33     21.49 
 H(Fragment=2)         15.62     20.64     20.34 
 O(Fragment=2)         22.25     24.37     18.55 
 H(Fragment=2)         21.6      24.21     19.23 
 H(Fragment=2)         21.95     23.85     17.8 
 O(Fragment=2)         17.48     21.       15.78 
 H(Fragment=2)         18.28     20.49     15.79 
 H(Fragment=2)         17.7      21.81     16.23 
 O(Fragment=2)         21.98     22.79     16.5 
 H(Fragment=2)         21.94     21.88     16.21 
 H(Fragment=2)         21.86     23.3      15.69 
 O(Fragment=2)         18.36     21.26     24.78 
 H(Fragment=2)         19.28     20.99     24.66 
 H(Fragment=2)         17.89     20.8      24.09 
 O(Fragment=2)         17.28     17.35     16.12 
 H(Fragment=2)         16.87     16.97     16.9 
 H(Fragment=2)         18.15     17.61     16.41 
 O(Fragment=2)         16.99     18.99     23.55 
 H(Fragment=2)         17.61     18.54     24.12 
 H(Fragment=2)         16.13     18.82     23.94 
 O(Fragment=2)         17.47     24.05     23.21 
 H(Fragment=2)         16.59     24.42     23.14 
 H(Fragment=2)         17.57     23.52     22.41 
 O(Fragment=2)         21.46     17.1      23.71 
 H(Fragment=2)         21.36     17.23     24.65 
 H(Fragment=2)         20.82     16.43     23.49 
 O(Fragment=2)         20.26     23.87     23.05 
 H(Fragment=2)         19.36     23.64     23.28 
 H(Fragment=2)         20.25     24.82     22.98 
 O(Fragment=2)         20.05     14.74     22.24 
 H(Fragment=2)         20.32     15.17     21.43 
 H(Fragment=2)         19.1      14.76     22.22 
 O(Fragment=2)         14.9      18.97     18.09 
 H(Fragment=2)         15.07     19.32     18.97 
 H(Fragment=2)         14.68     19.74     17.57 
 O(Fragment=2)         22.17     20.28     15.23 
 H(Fragment=2)         22.48     19.42     14.95 
 H(Fragment=2)         21.8      20.67     14.44 
 O(Fragment=2)         23.72     16.37     22.55 
 H(Fragment=2)         23.59     15.44     22.36 
 H(Fragment=2)         22.88     16.67     22.9 
 O(Fragment=2)         14.78     21.41     16.74 
 H(Fragment=2)         15.53     21.57     17.31 
 H(Fragment=2)         15.06     21.71     15.88 
 O(Fragment=2)         24.32     21.18     24.5 
 H(Fragment=2)         24.28     21.94     25.08 
 H(Fragment=2)         23.92     21.48     23.69 
 O(Fragment=2)         19.13     17.94     25.38 
 H(Fragment=2)         18.9      17.52     26.22 
 H(Fragment=2)         19.44     18.81     25.63 
 O(Fragment=2)         16.16     24.32     20.73 
 H(Fragment=2)         15.65     24.53     19.94 
 H(Fragment=2)         15.84     24.94     21.39 
 O(Fragment=2)         19.79     14.71     17.4 
 H(Fragment=2)         20.39     14.09     17.81 
 H(Fragment=2)         20.28     15.03     16.64 
 O(Fragment=2)         18.1      25.96     19.32 
 H(Fragment=2)         18.66     26.36     19.99 
 H(Fragment=2)         17.53     25.36     19.8 
 O(Fragment=2)         21.49     23.27     25.4 
 H(Fragment=2)         21.32     23.7      24.56 
 H(Fragment=2)         20.88     23.69     26.01 
 O(Fragment=2)         22.18     20.37     26.63 
 H(Fragment=2)         23.1      20.27     26.38 
 H(Fragment=2)         21.72     20.5      25.8 
 O(Fragment=2)         26.94     20.2      21.23 
 H(Fragment=2)         27.03     19.3      20.93 
 H(Fragment=2)         26.       20.38     21.19 
 O(Fragment=2)         25.07     18.19     24.45 
 H(Fragment=2)         24.88     17.44     23.89 
 H(Fragment=2)         24.53     18.9      24.1 
 O(Fragment=2)         25.42     15.91     18.7 
 H(Fragment=2)         24.91     16.21     19.46 
 H(Fragment=2)         25.51     16.68     18.14 
 O(Fragment=2)         15.11     15.31     20.9 
 H(Fragment=2)         15.53     15.77     21.63 
 H(Fragment=2)         15.61     15.58     20.13 
 O(Fragment=2)         18.41     19.46     13.07 
 H(Fragment=2)         17.51     19.34     12.79 
 H(Fragment=2)         18.34     19.73     13.99 
 O(Fragment=2)         26.01     21.94     18.62 
 H(Fragment=2)         26.52     21.15     18.45 
 H(Fragment=2)         25.49     22.06     17.83 
 O(Fragment=2)         23.88     24.63     23.88 
 H(Fragment=2)         23.57     23.93     23.31 
 H(Fragment=2)         23.25     25.34     23.76 
 O(Fragment=2)         14.44     22.15     22.62 
 H(Fragment=2)         14.89     22.88     22.2 
 H(Fragment=2)         13.52     22.25     22.35 
 O(Fragment=2)         24.99     22.6      16.26 
 H(Fragment=2)         24.06     22.76     16.1 
 H(Fragment=2)         25.35     22.42     15.39 
 O(Fragment=2)         21.13     15.75     15.26 
 H(Fragment=2)         21.06     15.05     14.61 
 H(Fragment=2)         20.83     16.53     14.81 
 O(Fragment=2)         26.       17.75     16.66 
 H(Fragment=2)         26.2      18.08     15.79 
 H(Fragment=2)         25.07     17.91     16.77 
 O(Fragment=2)         23.23     14.59     17.08 
 H(Fragment=2)         23.59     15.45     17.25 
 H(Fragment=2)         22.56     14.74     16.4 
 O(Fragment=2)         15.57     22.48     25.01 
 H(Fragment=2)         16.43     22.72     24.68 
 H(Fragment=2)         15.19     21.93     24.32 
 O(Fragment=2)         17.44     14.89     23.18 
 H(Fragment=2)         17.06     14.05     23.42 
 H(Fragment=2)         17.61     15.33     24.01 
 O(Fragment=2)         15.68     24.36     15.87 
 H(Fragment=2)         15.6      25.31     15.86 
 H(Fragment=2)         16.48     24.2      16.38 
 O(Fragment=2)         18.7      23.85     26.28 
 H(Fragment=2)         18.7      23.08     25.71 
 H(Fragment=2)         18.19     23.58     27.05 
 O(Fragment=2)         17.9      14.58     15.41 
 H(Fragment=2)         17.13     15.1      15.63 
 H(Fragment=2)         18.55     14.82     16.07 
 O(Fragment=2)         15.28     18.91     14.55 
 H(Fragment=2)         15.57     18.36     15.28 
 H(Fragment=2)         15.64     19.78     14.73 
 O(Fragment=2)         18.71     25.49     16.36 
 H(Fragment=2)         19.27     26.14     15.94 
 H(Fragment=2)         18.48     25.88     17.21 
 O(Fragment=2)         13.35     17.57     22.41 
 H(Fragment=2)         13.81     18.2      21.84 
 H(Fragment=2)         13.61     16.71     22.06 
 O(Fragment=2)         24.35     26.11     18.63 
 H(Fragment=2)         23.6      25.53     18.72 
 H(Fragment=2)         25.01     25.74     19.22 
 O(Fragment=2)         19.33     23.52     14.2 
 H(Fragment=2)         18.41     23.44     13.93 
 H(Fragment=2)         19.34     24.27     14.79 
 O(Fragment=2)         20.71     12.71     19. 
 H(Fragment=2)         21.25     13.31     19.52 
 H(Fragment=2)         20.49     12.01     19.61 
 O(Fragment=2)         23.13     13.93     19.75 
 H(Fragment=2)         23.85     13.63     20.31 
 H(Fragment=2)         23.55     14.16     18.92 
 O(Fragment=2)         13.65     16.46     17.86 
 H(Fragment=2)         14.02     17.35     17.91 
 H(Fragment=2)         12.91     16.48     18.46 
 O(Fragment=2)         12.2      20.21     19.87 
 H(Fragment=2)         11.83     20.42     19.01 
 H(Fragment=2)         13.14     20.4      19.77 
 O(Fragment=2)         20.53     17.62     13.14 
 H(Fragment=2)         20.4      17.43     12.21 
 H(Fragment=2)         19.81     18.22     13.36 
 O(Fragment=2)         23.07     17.93     13.94 
 H(Fragment=2)         23.68     17.2      13.8 
 H(Fragment=2)         22.2      17.54     13.85 
 O(Fragment=2)         21.63     22.4      13.28 
 H(Fragment=2)         22.16     23.18     13.45 
 H(Fragment=2)         20.74     22.66     13.54 
 O(Fragment=2)         20.34     26.81     22.13 
 H(Fragment=2)         20.86     26.91     21.33 
 H(Fragment=2)         19.48     27.14     21.9 
 O(Fragment=2)         17.19     21.71     27.36 
 H(Fragment=2)         16.24     21.83     27.44 
 H(Fragment=2)         17.32     21.49     26.44 
 O(Fragment=2)         21.09     14.25     24.78 
 H(Fragment=2)         20.79     14.03     23.89 
 H(Fragment=2)         21.64     13.5      25.03 
 O(Fragment=2)         18.89     26.08     24.83 
 H(Fragment=2)         18.66     25.15     24.94 
 H(Fragment=2)         18.72     26.25     23.9 
 O(Fragment=2)         14.9      19.09     25.16 
 H(Fragment=2)         14.29     19.28     24.45 
 H(Fragment=2)         14.51     18.35     25.63 
 O(Fragment=2)         12.76     22.52     18.34 
 H(Fragment=2)         13.42     22.3      17.69 
 H(Fragment=2)         12.71     23.48     18.33 
 O(Fragment=2)         26.62     23.28     21.5 
 H(Fragment=2)         26.97     22.58     20.95 
 H(Fragment=2)         26.82     23.       22.4 
 O(Fragment=2)         27.46     19.92     18.13 
 H(Fragment=2)         27.29     18.98     18.2 
 H(Fragment=2)         27.89     20.02     17.28 
 O(Fragment=2)         20.87     27.87     19.28 
 H(Fragment=2)         21.57     27.47     18.77 
 H(Fragment=2)         20.67     28.68     18.82 
 O(Fragment=2)         17.6      12.28     17.7 
 H(Fragment=2)         17.54     11.67     18.43 
 H(Fragment=2)         18.45     12.7      17.8 
 O(Fragment=2)         27.55     20.36     23.79 
 H(Fragment=2)         27.53     20.14     22.86 
 H(Fragment=2)         26.64     20.54     24.02 
 O(Fragment=2)         27.39     17.23     21.89 
 H(Fragment=2)         27.2      16.31     21.71 
 H(Fragment=2)         26.88     17.43     22.68 
 O(Fragment=2)         23.5      20.27     12.26 
 H(Fragment=2)         22.84     20.91     12.53 
 H(Fragment=2)         23.56     19.66     12.99 
 O(Fragment=2)         26.04     25.62     20.87 
 H(Fragment=2)         26.3      24.7      20.84 
 H(Fragment=2)         25.3      25.64     21.47 
 O(Fragment=2)         22.45     26.98     23.69 
 H(Fragment=2)         22.98     27.76     23.59 
 H(Fragment=2)         21.76     27.06     23.03 
 O(Fragment=2)         14.5      25.62     19.17 
 H(Fragment=2)         14.88     26.49     19.2 
 H(Fragment=2)         14.24     25.5      18.26 
 O(Fragment=2)         14.99     25.41     22.88 
 H(Fragment=2)         14.99     26.35     23.05 
 H(Fragment=2)         14.12     25.12     23.17 
 O(Fragment=2)         21.66     18.16     28.27 
 H(Fragment=2)         21.95     18.77     27.59 
 H(Fragment=2)         21.83     17.29     27.9 
 O(Fragment=2)         24.2      23.       26.51 
 H(Fragment=2)         23.47     22.94     27.12 
 H(Fragment=2)         23.92     23.66     25.87 
 O(Fragment=2)         22.03     26.92     16.3 
 H(Fragment=2)         22.89     26.59     16.55 
 H(Fragment=2)         21.96     26.72     15.37 
 O(Fragment=2)         17.58     15.32     26.01 
 H(Fragment=2)         17.41     14.45     26.36 
 H(Fragment=2)         18.2      15.72     26.62 
 O(Fragment=2)         18.07     11.46     21.55 
 H(Fragment=2)         17.61     10.88     20.94 
 H(Fragment=2)         18.13     12.3      21.1 
 O(Fragment=2)         14.61     22.77     14.12 
 H(Fragment=2)         15.09     23.4      14.66 
 H(Fragment=2)         13.72     22.81     14.46 
 O(Fragment=2)         21.51     22.45     28.33 
 H(Fragment=2)         21.79     21.86     27.62 
 H(Fragment=2)         20.88     21.94     28.83 
 O(Fragment=2)         22.45     16.08     26.59 
 H(Fragment=2)         23.36     15.9      26.33 
 H(Fragment=2)         21.99     15.26     26.43 
 O(Fragment=2)         23.72     13.32     22.66 
 H(Fragment=2)         23.53     12.85     23.47 
 H(Fragment=2)         24.07     12.65     22.07 
 O(Fragment=2)         25.05     18.44     27.18 
 H(Fragment=2)         24.54     18.09     26.45 
 H(Fragment=2)         25.16     17.7      27.77 
 O(Fragment=2)         19.63     21.09     11.41 
 H(Fragment=2)         20.22     21.51     12.02 
 H(Fragment=2)         19.24     20.36     11.9 
 O(Fragment=2)         12.67     21.11     24.71 
 H(Fragment=2)         13.41     21.67     24.47 
 H(Fragment=2)         11.93     21.47     24.21 
 O(Fragment=2)         26.54     14.69     22.76 
 H(Fragment=2)         26.78     14.1      23.48 
 H(Fragment=2)         25.59     14.63     22.7 
 O(Fragment=2)         18.26     27.93     21.25 
 H(Fragment=2)         18.14     28.25     20.36 
 H(Fragment=2)         17.94     28.64     21.81 
 O(Fragment=2)         22.97     24.69     13.9 
 H(Fragment=2)         22.9      24.99     13. 
 H(Fragment=2)         23.69     25.22     14.27 
 O(Fragment=2)         28.26     23.85     19.06 
 H(Fragment=2)         27.47     23.36     18.81 
 H(Fragment=2)         28.98     23.37     18.65 
 O(Fragment=2)         11.82     22.28     22.1 
 H(Fragment=2)         12.       21.83     21.28 
 H(Fragment=2)         10.89     22.1      22.28 
 O(Fragment=2)         25.92     13.58     17.21 
 H(Fragment=2)         25.64     14.32     17.74 
 H(Fragment=2)         25.29     12.89     17.42 
 O(Fragment=2)         12.48     14.6      20.21 
 H(Fragment=2)         12.32     13.94     20.88 
 H(Fragment=2)         13.36     14.92     20.4 
 O(Fragment=2)         21.43     26.3      26.12 
 H(Fragment=2)         20.72     26.32     25.48 
 H(Fragment=2)         22.23     26.37     25.59 
 O(Fragment=2)         25.91     21.52     14.02 
 H(Fragment=2)         25.28     21.15     13.39 
 H(Fragment=2)         26.31     20.76     14.43 
 O(Fragment=2)         24.77     15.04     25.45 
 H(Fragment=2)         25.46     14.38     25.53 
 H(Fragment=2)         24.       14.56     25.14 
 O(Fragment=2)         17.59     19.38     28.72 
 H(Fragment=2)         16.71     19.36     29.1 
 H(Fragment=2)         17.6      20.17     28.18 
 O(Fragment=2)         14.58     16.5      26.26 
 H(Fragment=2)         14.95     16.52     27.14 
 H(Fragment=2)         15.17     15.94     25.76 
 O(Fragment=2)         14.58     20.52     12.6 
 H(Fragment=2)         14.69     19.86     13.28 
 H(Fragment=2)         14.43     21.34     13.08 
 O(Fragment=2)         16.88     23.29     12.73 
 H(Fragment=2)         16.87     22.68     11.99 
 H(Fragment=2)         15.99     23.25     13.08 
 O(Fragment=2)         18.67     16.99     27.94 
 H(Fragment=2)         18.29     17.81     28.27 
 H(Fragment=2)         19.17     16.64     28.67 
 O(Fragment=2)         16.54     16.2      12.38 
 H(Fragment=2)         16.34     17.03     12.81 
 H(Fragment=2)         15.78     16.03     11.83 
 O(Fragment=2)         22.73     12.04     15.51 
 H(Fragment=2)         23.68     12.19     15.44 
 H(Fragment=2)         22.43     12.73     16.09 
 O(Fragment=2)         12.08     25.02     20.55 
 H(Fragment=2)         11.74     24.14     20.41 
 H(Fragment=2)         12.98     24.98     20.24 
 O(Fragment=2)         14.62     12.55     20.35 
 H(Fragment=2)         14.41     12.14     21.19 
 H(Fragment=2)         14.4      13.47     20.47 
 O(Fragment=2)         11.72     20.26     15.81 
 H(Fragment=2)         11.51     19.59     15.16 
 H(Fragment=2)         12.02     19.77     16.57 
 O(Fragment=2)         23.82     15.34     13.71 
 H(Fragment=2)         24.33     15.17     12.92 
 H(Fragment=2)         22.98     14.92     13.55 
 O(Fragment=2)         15.16     24.87     26.32 
 H(Fragment=2)         15.16     23.94     26.09 
 H(Fragment=2)         16.09     25.09     26.43 
 O(Fragment=2)         26.55     26.19     16.91 
 H(Fragment=2)         27.08     25.46     16.58 
 H(Fragment=2)         26.05     25.82     17.63 
 O(Fragment=2)         27.97     23.71     16.07 
 H(Fragment=2)         28.87     23.41     16.16 
 H(Fragment=2)         27.45     23.05     16.54 
 O(Fragment=2)         13.12     14.08     16.76 
 H(Fragment=2)         13.31     14.99     16.96 
 H(Fragment=2)         13.71     13.57     17.32 
 O(Fragment=2)         23.64     28.73     18.33 
 H(Fragment=2)         23.94     27.83     18.44 
 H(Fragment=2)         23.94     28.98     17.46 
 O(Fragment=2)         17.55     12.04     14.9 
 H(Fragment=2)         17.34     11.89     15.82 
 H(Fragment=2)         17.88     12.94     14.88 
 O(Fragment=2)         10.25     18.62     21.4 
 H(Fragment=2)         11.13     18.83     21.1 
 H(Fragment=2)         9.78      19.45     21.37 
 O(Fragment=2)         24.95     25.88     26.34 
 H(Fragment=2)         25.66     26.33     25.87 
 H(Fragment=2)         24.68     25.18     25.74 
 O(Fragment=2)         15.64     27.14     16.57 
 H(Fragment=2)         15.41     27.63     17.36 
 H(Fragment=2)         15.11     27.54     15.87 
 O(Fragment=2)         16.62     12.51     23.79 
 H(Fragment=2)         17.34     12.17     24.33 
 H(Fragment=2)         16.75     12.08     22.94 
 O(Fragment=2)         26.61     18.85     13.92 
 H(Fragment=2)         27.03     19.4      13.26 
 H(Fragment=2)         26.82     17.96     13.64 
 O(Fragment=2)         27.5      18.14     26.02 
 H(Fragment=2)         26.81     18.71     26.34 
 H(Fragment=2)         27.09     17.63     25.31 
 
 NAtoms=    385 NQM=      385 NQMF=       0 NMMI=      0 NMMIF=      0
                NMic=       0 NMicF=      0.
                    Isotopes and Nuclear Properties:
 (Nuclear quadrupole moments (NQMom) in fm**2, nuclear magnetic moments (NMagM)
  in nuclear magnetons)

  Atom         1           2           3           4           5           6           7           8           9          10
 IAtWgt=          79          16           1           1          16           1           1          16           1           1
 AtmWgt=  78.9183361  15.9949146   1.0078250   1.0078250  15.9949146   1.0078250   1.0078250  15.9949146   1.0078250   1.0078250
 NucSpn=           3           0           1           1           0           1           1           0           1           1
 AtZEff=   0.0000000   0.0000000   0.0000000   0.0000000   0.0000000   0.0000000   0.0000000   0.0000000   0.0000000   0.0000000
 NQMom=   31.3000000   0.0000000   0.0000000   0.0000000   0.0000000   0.0000000   0.0000000   0.0000000   0.0000000   0.0000000
 NMagM=    2.1063990   0.0000000   2.7928460   2.7928460   0.0000000   2.7928460   2.7928460   0.0000000   2.7928460   2.7928460
 AtZNuc=  35.0000000   8.0000000   1.0000000   1.0000000   8.0000000   1.0000000   1.0000000   8.0000000   1.0000000   1.0000000

  Atom        11          12          13          14          15          16          17          18          19          20
 IAtWgt=          16           1           1          16           1           1          16           1           1          16
 AtmWgt=  15.9949146   1.0078250   1.0078250  15.9949146   1.0078250   1.0078250  15.9949146   1.0078250   1.0078250  15.9949146
 NucSpn=           0           1           1           0           1           1           0           1           1           0
 AtZEff=   0.0000000   0.0000000   0.0000000   0.0000000   0.0000000   0.0000000   0.0000000   0.0000000   0.0000000   0.0000000
 NQMom=    0.0000000   0.0000000   0.0000000   0.0000000   0.0000000   0.0000000   0.0000000   0.0000000   0.0000000   0.0000000
 NMagM=    0.0000000   2.7928460   2.7928460   0.0000000   2.7928460   2.7928460   0.0000000   2.7928460   2.7928460   0.0000000
 AtZNuc=   8.0000000   1.0000000   1.0000000   8.0000000   1.0000000   1.0000000   8.0000000   1.0000000   1.0000000   8.0000000

  Atom        21          22          23          24          25          26          27          28          29          30
 IAtWgt=           1           1          16           1           1          16           1           1          16           1
 AtmWgt=   1.0078250   1.0078250  15.9949146   1.0078250   1.0078250  15.9949146   1.0078250   1.0078250  15.9949146   1.0078250
 NucSpn=           1           1           0           1           1           0           1           1           0           1
 AtZEff=   0.0000000   0.0000000   0.0000000   0.0000000   0.0000000   0.0000000   0.0000000   0.0000000   0.0000000   0.0000000
 NQMom=    0.0000000   0.0000000   0.0000000   0.0000000   0.0000000   0.0000000   0.0000000   0.0000000   0.0000000   0.0000000
 NMagM=    2.7928460   2.7928460   0.0000000   2.7928460   2.7928460   0.0000000   2.7928460   2.7928460   0.0000000   2.7928460
 AtZNuc=   1.0000000   1.0000000   8.0000000   1.0000000   1.0000000   8.0000000   1.0000000   1.0000000   8.0000000   1.0000000

  Atom        31          32          33          34          35          36          37          38          39          40
 IAtWgt=           1          16           1           1          16           1           1          16           1           1
 AtmWgt=   1.0078250  15.9949146   1.0078250   1.0078250  15.9949146   1.0078250   1.0078250  15.9949146   1.0078250   1.0078250
 NucSpn=           1           0           1           1           0           1           1           0           1           1
 AtZEff=   0.0000000   0.0000000   0.0000000   0.0000000   0.0000000   0.0000000   0.0000000   0.0000000   0.0000000   0.0000000
 NQMom=    0.0000000   0.0000000   0.0000000   0.0000000   0.0000000   0.0000000   0.0000000   0.0000000   0.0000000   0.0000000
 NMagM=    2.7928460   0.0000000   2.7928460   2.7928460   0.0000000   2.7928460   2.7928460   0.0000000   2.7928460   2.7928460
 AtZNuc=   1.0000000   8.0000000   1.0000000   1.0000000   8.0000000   1.0000000   1.0000000   8.0000000   1.0000000   1.0000000

  Atom        41          42          43          44          45          46          47          48          49          50
 IAtWgt=          16           1           1          16           1           1          16           1           1          16
 AtmWgt=  15.9949146   1.0078250   1.0078250  15.9949146   1.0078250   1.0078250  15.9949146   1.0078250   1.0078250  15.9949146
 NucSpn=           0           1           1           0           1           1           0           1           1           0
 AtZEff=   0.0000000   0.0000000   0.0000000   0.0000000   0.0000000   0.0000000   0.0000000   0.0000000   0.0000000   0.0000000
 NQMom=    0.0000000   0.0000000   0.0000000   0.0000000   0.0000000   0.0000000   0.0000000   0.0000000   0.0000000   0.0000000
 NMagM=    0.0000000   2.7928460   2.7928460   0.0000000   2.7928460   2.7928460   0.0000000   2.7928460   2.7928460   0.0000000
 AtZNuc=   8.0000000   1.0000000   1.0000000   8.0000000   1.0000000   1.0000000   8.0000000   1.0000000   1.0000000   8.0000000

  Atom        51          52          53          54          55          56          57          58          59          60
 IAtWgt=           1           1          16           1           1          16           1           1          16           1
 AtmWgt=   1.0078250   1.0078250  15.9949146   1.0078250   1.0078250  15.9949146   1.0078250   1.0078250  15.9949146   1.0078250
 NucSpn=           1           1           0           1           1           0           1           1           0           1
 AtZEff=   0.0000000   0.0000000   0.0000000   0.0000000   0.0000000   0.0000000   0.0000000   0.0000000   0.0000000   0.0000000
 NQMom=    0.0000000   0.0000000   0.0000000   0.0000000   0.0000000   0.0000000   0.0000000   0.0000000   0.0000000   0.0000000
 NMagM=    2.7928460   2.7928460   0.0000000   2.7928460   2.7928460   0.0000000   2.7928460   2.7928460   0.0000000   2.7928460
 AtZNuc=   1.0000000   1.0000000   8.0000000   1.0000000   1.0000000   8.0000000   1.0000000   1.0000000   8.0000000   1.0000000

  Atom        61          62          63          64          65          66          67          68          69          70
 IAtWgt=           1          16           1           1          16           1           1          16           1           1
 AtmWgt=   1.0078250  15.9949146   1.0078250   1.0078250  15.9949146   1.0078250   1.0078250  15.9949146   1.0078250   1.0078250
 NucSpn=           1           0           1           1           0           1           1           0           1           1
 AtZEff=   0.0000000   0.0000000   0.0000000   0.0000000   0.0000000   0.0000000   0.0000000   0.0000000   0.0000000   0.0000000
 NQMom=    0.0000000   0.0000000   0.0000000   0.0000000   0.0000000   0.0000000   0.0000000   0.0000000   0.0000000   0.0000000
 NMagM=    2.7928460   0.0000000   2.7928460   2.7928460   0.0000000   2.7928460   2.7928460   0.0000000   2.7928460   2.7928460
 AtZNuc=   1.0000000   8.0000000   1.0000000   1.0000000   8.0000000   1.0000000   1.0000000   8.0000000   1.0000000   1.0000000

  Atom        71          72          73          74          75          76          77          78          79          80
 IAtWgt=          16           1           1          16           1           1          16           1           1          16
 AtmWgt=  15.9949146   1.0078250   1.0078250  15.9949146   1.0078250   1.0078250  15.9949146   1.0078250   1.0078250  15.9949146
 NucSpn=           0           1           1           0           1           1           0           1           1           0
 AtZEff=   0.0000000   0.0000000   0.0000000   0.0000000   0.0000000   0.0000000   0.0000000   0.0000000   0.0000000   0.0000000
 NQMom=    0.0000000   0.0000000   0.0000000   0.0000000   0.0000000   0.0000000   0.0000000   0.0000000   0.0000000   0.0000000
 NMagM=    0.0000000   2.7928460   2.7928460   0.0000000   2.7928460   2.7928460   0.0000000   2.7928460   2.7928460   0.0000000
 AtZNuc=   8.0000000   1.0000000   1.0000000   8.0000000   1.0000000   1.0000000   8.0000000   1.0000000   1.0000000   8.0000000

  Atom        81          82          83          84          85          86          87          88          89          90
 IAtWgt=           1           1          16           1           1          16           1           1          16           1
 AtmWgt=   1.0078250   1.0078250  15.9949146   1.0078250   1.0078250  15.9949146   1.0078250   1.0078250  15.9949146   1.0078250
 NucSpn=           1           1           0           1           1           0           1           1           0           1
 AtZEff=   0.0000000   0.0000000   0.0000000   0.0000000   0.0000000   0.0000000   0.0000000   0.0000000   0.0000000   0.0000000
 NQMom=    0.0000000   0.0000000   0.0000000   0.0000000   0.0000000   0.0000000   0.0000000   0.0000000   0.0000000   0.0000000
 NMagM=    2.7928460   2.7928460   0.0000000   2.7928460   2.7928460   0.0000000   2.7928460   2.7928460   0.0000000   2.7928460
 AtZNuc=   1.0000000   1.0000000   8.0000000   1.0000000   1.0000000   8.0000000   1.0000000   1.0000000   8.0000000   1.0000000

  Atom        91          92          93          94          95          96          97          98          99         100
 IAtWgt=           1          16           1           1          16           1           1          16           1           1
 AtmWgt=   1.0078250  15.9949146   1.0078250   1.0078250  15.9949146   1.0078250   1.0078250  15.9949146   1.0078250   1.0078250
 NucSpn=           1           0           1           1           0           1           1           0           1           1
 AtZEff=   0.0000000   0.0000000   0.0000000   0.0000000   0.0000000   0.0000000   0.0000000   0.0000000   0.0000000   0.0000000
 NQMom=    0.0000000   0.0000000   0.0000000   0.0000000   0.0000000   0.0000000   0.0000000   0.0000000   0.0000000   0.0000000
 NMagM=    2.7928460   0.0000000   2.7928460   2.7928460   0.0000000   2.7928460   2.7928460   0.0000000   2.7928460   2.7928460
 AtZNuc=   1.0000000   8.0000000   1.0000000   1.0000000   8.0000000   1.0000000   1.0000000   8.0000000   1.0000000   1.0000000

  Atom       101         102         103         104         105         106         107         108         109         110
 IAtWgt=          16           1           1          16           1           1          16           1           1          16
 AtmWgt=  15.9949146   1.0078250   1.0078250  15.9949146   1.0078250   1.0078250  15.9949146   1.0078250   1.0078250  15.9949146
 NucSpn=           0           1           1           0           1           1           0           1           1           0
 AtZEff=   0.0000000   0.0000000   0.0000000   0.0000000   0.0000000   0.0000000   0.0000000   0.0000000   0.0000000   0.0000000
 NQMom=    0.0000000   0.0000000   0.0000000   0.0000000   0.0000000   0.0000000   0.0000000   0.0000000   0.0000000   0.0000000
 NMagM=    0.0000000   2.7928460   2.7928460   0.0000000   2.7928460   2.7928460   0.0000000   2.7928460   2.7928460   0.0000000
 AtZNuc=   8.0000000   1.0000000   1.0000000   8.0000000   1.0000000   1.0000000   8.0000000   1.0000000   1.0000000   8.0000000

  Atom       111         112         113         114         115         116         117         118         119         120
 IAtWgt=           1           1          16           1           1          16           1           1          16           1
 AtmWgt=   1.0078250   1.0078250  15.9949146   1.0078250   1.0078250  15.9949146   1.0078250   1.0078250  15.9949146   1.0078250
 NucSpn=           1           1           0           1           1           0           1           1           0           1
 AtZEff=   0.0000000   0.0000000   0.0000000   0.0000000   0.0000000   0.0000000   0.0000000   0.0000000   0.0000000   0.0000000
 NQMom=    0.0000000   0.0000000   0.0000000   0.0000000   0.0000000   0.0000000   0.0000000   0.0000000   0.0000000   0.0000000
 NMagM=    2.7928460   2.7928460   0.0000000   2.7928460   2.7928460   0.0000000   2.7928460   2.7928460   0.0000000   2.7928460
 AtZNuc=   1.0000000   1.0000000   8.0000000   1.0000000   1.0000000   8.0000000   1.0000000   1.0000000   8.0000000   1.0000000

  Atom       121         122         123         124         125         126         127         128         129         130
 IAtWgt=           1          16           1           1          16           1           1          16           1           1
 AtmWgt=   1.0078250  15.9949146   1.0078250   1.0078250  15.9949146   1.0078250   1.0078250  15.9949146   1.0078250   1.0078250
 NucSpn=           1           0           1           1           0           1           1           0           1           1
 AtZEff=   0.0000000   0.0000000   0.0000000   0.0000000   0.0000000   0.0000000   0.0000000   0.0000000   0.0000000   0.0000000
 NQMom=    0.0000000   0.0000000   0.0000000   0.0000000   0.0000000   0.0000000   0.0000000   0.0000000   0.0000000   0.0000000
 NMagM=    2.7928460   0.0000000   2.7928460   2.7928460   0.0000000   2.7928460   2.7928460   0.0000000   2.7928460   2.7928460
 AtZNuc=   1.0000000   8.0000000   1.0000000   1.0000000   8.0000000   1.0000000   1.0000000   8.0000000   1.0000000   1.0000000

  Atom       131         132         133         134         135         136         137         138         139         140
 IAtWgt=          16           1           1          16           1           1          16           1           1          16
 AtmWgt=  15.9949146   1.0078250   1.0078250  15.9949146   1.0078250   1.0078250  15.9949146   1.0078250   1.0078250  15.9949146
 NucSpn=           0           1           1           0           1           1           0           1           1           0
 AtZEff=   0.0000000   0.0000000   0.0000000   0.0000000   0.0000000   0.0000000   0.0000000   0.0000000   0.0000000   0.0000000
 NQMom=    0.0000000   0.0000000   0.0000000   0.0000000   0.0000000   0.0000000   0.0000000   0.0000000   0.0000000   0.0000000
 NMagM=    0.0000000   2.7928460   2.7928460   0.0000000   2.7928460   2.7928460   0.0000000   2.7928460   2.7928460   0.0000000
 AtZNuc=   8.0000000   1.0000000   1.0000000   8.0000000   1.0000000   1.0000000   8.0000000   1.0000000   1.0000000   8.0000000

  Atom       141         142         143         144         145         146         147         148         149         150
 IAtWgt=           1           1          16           1           1          16           1           1          16           1
 AtmWgt=   1.0078250   1.0078250  15.9949146   1.0078250   1.0078250  15.9949146   1.0078250   1.0078250  15.9949146   1.0078250
 NucSpn=           1           1           0           1           1           0           1           1           0           1
 AtZEff=   0.0000000   0.0000000   0.0000000   0.0000000   0.0000000   0.0000000   0.0000000   0.0000000   0.0000000   0.0000000
 NQMom=    0.0000000   0.0000000   0.0000000   0.0000000   0.0000000   0.0000000   0.0000000   0.0000000   0.0000000   0.0000000
 NMagM=    2.7928460   2.7928460   0.0000000   2.7928460   2.7928460   0.0000000   2.7928460   2.7928460   0.0000000   2.7928460
 AtZNuc=   1.0000000   1.0000000   8.0000000   1.0000000   1.0000000   8.0000000   1.0000000   1.0000000   8.0000000   1.0000000

  Atom       151         152         153         154         155         156         157         158         159         160
 IAtWgt=           1          16           1           1          16           1           1          16           1           1
 AtmWgt=   1.0078250  15.9949146   1.0078250   1.0078250  15.9949146   1.0078250   1.0078250  15.9949146   1.0078250   1.0078250
 NucSpn=           1           0           1           1           0           1           1           0           1           1
 AtZEff=   0.0000000   0.0000000   0.0000000   0.0000000   0.0000000   0.0000000   0.0000000   0.0000000   0.0000000   0.0000000
 NQMom=    0.0000000   0.0000000   0.0000000   0.0000000   0.0000000   0.0000000   0.0000000   0.0000000   0.0000000   0.0000000
 NMagM=    2.7928460   0.0000000   2.7928460   2.7928460   0.0000000   2.7928460   2.7928460   0.0000000   2.7928460   2.7928460
 AtZNuc=   1.0000000   8.0000000   1.0000000   1.0000000   8.0000000   1.0000000   1.0000000   8.0000000   1.0000000   1.0000000

  Atom       161         162         163         164         165         166         167         168         169         170
 IAtWgt=          16           1           1          16           1           1          16           1           1          16
 AtmWgt=  15.9949146   1.0078250   1.0078250  15.9949146   1.0078250   1.0078250  15.9949146   1.0078250   1.0078250  15.9949146
 NucSpn=           0           1           1           0           1           1           0           1           1           0
 AtZEff=   0.0000000   0.0000000   0.0000000   0.0000000   0.0000000   0.0000000   0.0000000   0.0000000   0.0000000   0.0000000
 NQMom=    0.0000000   0.0000000   0.0000000   0.0000000   0.0000000   0.0000000   0.0000000   0.0000000   0.0000000   0.0000000
 NMagM=    0.0000000   2.7928460   2.7928460   0.0000000   2.7928460   2.7928460   0.0000000   2.7928460   2.7928460   0.0000000
 AtZNuc=   8.0000000   1.0000000   1.0000000   8.0000000   1.0000000   1.0000000   8.0000000   1.0000000   1.0000000   8.0000000

  Atom       171         172         173         174         175         176         177         178         179         180
 IAtWgt=           1           1          16           1           1          16           1           1          16           1
 AtmWgt=   1.0078250   1.0078250  15.9949146   1.0078250   1.0078250  15.9949146   1.0078250   1.0078250  15.9949146   1.0078250
 NucSpn=           1           1           0           1           1           0           1           1           0           1
 AtZEff=   0.0000000   0.0000000   0.0000000   0.0000000   0.0000000   0.0000000   0.0000000   0.0000000   0.0000000   0.0000000
 NQMom=    0.0000000   0.0000000   0.0000000   0.0000000   0.0000000   0.0000000   0.0000000   0.0000000   0.0000000   0.0000000
 NMagM=    2.7928460   2.7928460   0.0000000   2.7928460   2.7928460   0.0000000   2.7928460   2.7928460   0.0000000   2.7928460
 AtZNuc=   1.0000000   1.0000000   8.0000000   1.0000000   1.0000000   8.0000000   1.0000000   1.0000000   8.0000000   1.0000000

  Atom       181         182         183         184         185         186         187         188         189         190
 IAtWgt=           1          16           1           1          16           1           1          16           1           1
 AtmWgt=   1.0078250  15.9949146   1.0078250   1.0078250  15.9949146   1.0078250   1.0078250  15.9949146   1.0078250   1.0078250
 NucSpn=           1           0           1           1           0           1           1           0           1           1
 AtZEff=   0.0000000   0.0000000   0.0000000   0.0000000   0.0000000   0.0000000   0.0000000   0.0000000   0.0000000   0.0000000
 NQMom=    0.0000000   0.0000000   0.0000000   0.0000000   0.0000000   0.0000000   0.0000000   0.0000000   0.0000000   0.0000000
 NMagM=    2.7928460   0.0000000   2.7928460   2.7928460   0.0000000   2.7928460   2.7928460   0.0000000   2.7928460   2.7928460
 AtZNuc=   1.0000000   8.0000000   1.0000000   1.0000000   8.0000000   1.0000000   1.0000000   8.0000000   1.0000000   1.0000000

  Atom       191         192         193         194         195         196         197         198         199         200
 IAtWgt=          16           1           1          16           1           1          16           1           1          16
 AtmWgt=  15.9949146   1.0078250   1.0078250  15.9949146   1.0078250   1.0078250  15.9949146   1.0078250   1.0078250  15.9949146
 NucSpn=           0           1           1           0           1           1           0           1           1           0
 AtZEff=   0.0000000   0.0000000   0.0000000   0.0000000   0.0000000   0.0000000   0.0000000   0.0000000   0.0000000   0.0000000
 NQMom=    0.0000000   0.0000000   0.0000000   0.0000000   0.0000000   0.0000000   0.0000000   0.0000000   0.0000000   0.0000000
 NMagM=    0.0000000   2.7928460   2.7928460   0.0000000   2.7928460   2.7928460   0.0000000   2.7928460   2.7928460   0.0000000
 AtZNuc=   8.0000000   1.0000000   1.0000000   8.0000000   1.0000000   1.0000000   8.0000000   1.0000000   1.0000000   8.0000000

  Atom       201         202         203         204         205         206         207         208         209         210
 IAtWgt=           1           1          16           1           1          16           1           1          16           1
 AtmWgt=   1.0078250   1.0078250  15.9949146   1.0078250   1.0078250  15.9949146   1.0078250   1.0078250  15.9949146   1.0078250
 NucSpn=           1           1           0           1           1           0           1           1           0           1
 AtZEff=   0.0000000   0.0000000   0.0000000   0.0000000   0.0000000   0.0000000   0.0000000   0.0000000   0.0000000   0.0000000
 NQMom=    0.0000000   0.0000000   0.0000000   0.0000000   0.0000000   0.0000000   0.0000000   0.0000000   0.0000000   0.0000000
 NMagM=    2.7928460   2.7928460   0.0000000   2.7928460   2.7928460   0.0000000   2.7928460   2.7928460   0.0000000   2.7928460
 AtZNuc=   1.0000000   1.0000000   8.0000000   1.0000000   1.0000000   8.0000000   1.0000000   1.0000000   8.0000000   1.0000000

  Atom       211         212         213         214         215         216         217         218         219         220
 IAtWgt=           1          16           1           1          16           1           1          16           1           1
 AtmWgt=   1.0078250  15.9949146   1.0078250   1.0078250  15.9949146   1.0078250   1.0078250  15.9949146   1.0078250   1.0078250
 NucSpn=           1           0           1           1           0           1           1           0           1           1
 AtZEff=   0.0000000   0.0000000   0.0000000   0.0000000   0.0000000   0.0000000   0.0000000   0.0000000   0.0000000   0.0000000
 NQMom=    0.0000000   0.0000000   0.0000000   0.0000000   0.0000000   0.0000000   0.0000000   0.0000000   0.0000000   0.0000000
 NMagM=    2.7928460   0.0000000   2.7928460   2.7928460   0.0000000   2.7928460   2.7928460   0.0000000   2.7928460   2.7928460
 AtZNuc=   1.0000000   8.0000000   1.0000000   1.0000000   8.0000000   1.0000000   1.0000000   8.0000000   1.0000000   1.0000000

  Atom       221         222         223         224         225         226         227         228         229         230
 IAtWgt=          16           1           1          16           1           1          16           1           1          16
 AtmWgt=  15.9949146   1.0078250   1.0078250  15.9949146   1.0078250   1.0078250  15.9949146   1.0078250   1.0078250  15.9949146
 NucSpn=           0           1           1           0           1           1           0           1           1           0
 AtZEff=   0.0000000   0.0000000   0.0000000   0.0000000   0.0000000   0.0000000   0.0000000   0.0000000   0.0000000   0.0000000
 NQMom=    0.0000000   0.0000000   0.0000000   0.0000000   0.0000000   0.0000000   0.0000000   0.0000000   0.0000000   0.0000000
 NMagM=    0.0000000   2.7928460   2.7928460   0.0000000   2.7928460   2.7928460   0.0000000   2.7928460   2.7928460   0.0000000
 AtZNuc=   8.0000000   1.0000000   1.0000000   8.0000000   1.0000000   1.0000000   8.0000000   1.0000000   1.0000000   8.0000000

  Atom       231         232         233         234         235         236         237         238         239         240
 IAtWgt=           1           1          16           1           1          16           1           1          16           1
 AtmWgt=   1.0078250   1.0078250  15.9949146   1.0078250   1.0078250  15.9949146   1.0078250   1.0078250  15.9949146   1.0078250
 NucSpn=           1           1           0           1           1           0           1           1           0           1
 AtZEff=   0.0000000   0.0000000   0.0000000   0.0000000   0.0000000   0.0000000   0.0000000   0.0000000   0.0000000   0.0000000
 NQMom=    0.0000000   0.0000000   0.0000000   0.0000000   0.0000000   0.0000000   0.0000000   0.0000000   0.0000000   0.0000000
 NMagM=    2.7928460   2.7928460   0.0000000   2.7928460   2.7928460   0.0000000   2.7928460   2.7928460   0.0000000   2.7928460
 AtZNuc=   1.0000000   1.0000000   8.0000000   1.0000000   1.0000000   8.0000000   1.0000000   1.0000000   8.0000000   1.0000000

  Atom       241         242         243         244         245         246         247         248         249         250
 IAtWgt=           1          16           1           1          16           1           1          16           1           1
 AtmWgt=   1.0078250  15.9949146   1.0078250   1.0078250  15.9949146   1.0078250   1.0078250  15.9949146   1.0078250   1.0078250
 NucSpn=           1           0           1           1           0           1           1           0           1           1
 AtZEff=   0.0000000   0.0000000   0.0000000   0.0000000   0.0000000   0.0000000   0.0000000   0.0000000   0.0000000   0.0000000
 NQMom=    0.0000000   0.0000000   0.0000000   0.0000000   0.0000000   0.0000000   0.0000000   0.0000000   0.0000000   0.0000000
 NMagM=    2.7928460   0.0000000   2.7928460   2.7928460   0.0000000   2.7928460   2.7928460   0.0000000   2.7928460   2.7928460
 AtZNuc=   1.0000000   8.0000000   1.0000000   1.0000000   8.0000000   1.0000000   1.0000000   8.0000000   1.0000000   1.0000000

  Atom       251         252         253         254         255         256         257         258         259         260
 IAtWgt=          16           1           1          16           1           1          16           1           1          16
 AtmWgt=  15.9949146   1.0078250   1.0078250  15.9949146   1.0078250   1.0078250  15.9949146   1.0078250   1.0078250  15.9949146
 NucSpn=           0           1           1           0           1           1           0           1           1           0
 AtZEff=   0.0000000   0.0000000   0.0000000   0.0000000   0.0000000   0.0000000   0.0000000   0.0000000   0.0000000   0.0000000
 NQMom=    0.0000000   0.0000000   0.0000000   0.0000000   0.0000000   0.0000000   0.0000000   0.0000000   0.0000000   0.0000000
 NMagM=    0.0000000   2.7928460   2.7928460   0.0000000   2.7928460   2.7928460   0.0000000   2.7928460   2.7928460   0.0000000
 AtZNuc=   8.0000000   1.0000000   1.0000000   8.0000000   1.0000000   1.0000000   8.0000000   1.0000000   1.0000000   8.0000000

  Atom       261         262         263         264         265         266         267         268         269         270
 IAtWgt=           1           1          16           1           1          16           1           1          16           1
 AtmWgt=   1.0078250   1.0078250  15.9949146   1.0078250   1.0078250  15.9949146   1.0078250   1.0078250  15.9949146   1.0078250
 NucSpn=           1           1           0           1           1           0           1           1           0           1
 AtZEff=   0.0000000   0.0000000   0.0000000   0.0000000   0.0000000   0.0000000   0.0000000   0.0000000   0.0000000   0.0000000
 NQMom=    0.0000000   0.0000000   0.0000000   0.0000000   0.0000000   0.0000000   0.0000000   0.0000000   0.0000000   0.0000000
 NMagM=    2.7928460   2.7928460   0.0000000   2.7928460   2.7928460   0.0000000   2.7928460   2.7928460   0.0000000   2.7928460
 AtZNuc=   1.0000000   1.0000000   8.0000000   1.0000000   1.0000000   8.0000000   1.0000000   1.0000000   8.0000000   1.0000000

  Atom       271         272         273         274         275         276         277         278         279         280
 IAtWgt=           1          16           1           1          16           1           1          16           1           1
 AtmWgt=   1.0078250  15.9949146   1.0078250   1.0078250  15.9949146   1.0078250   1.0078250  15.9949146   1.0078250   1.0078250
 NucSpn=           1           0           1           1           0           1           1           0           1           1
 AtZEff=   0.0000000   0.0000000   0.0000000   0.0000000   0.0000000   0.0000000   0.0000000   0.0000000   0.0000000   0.0000000
 NQMom=    0.0000000   0.0000000   0.0000000   0.0000000   0.0000000   0.0000000   0.0000000   0.0000000   0.0000000   0.0000000
 NMagM=    2.7928460   0.0000000   2.7928460   2.7928460   0.0000000   2.7928460   2.7928460   0.0000000   2.7928460   2.7928460
 AtZNuc=   1.0000000   8.0000000   1.0000000   1.0000000   8.0000000   1.0000000   1.0000000   8.0000000   1.0000000   1.0000000

  Atom       281         282         283         284         285         286         287         288         289         290
 IAtWgt=          16           1           1          16           1           1          16           1           1          16
 AtmWgt=  15.9949146   1.0078250   1.0078250  15.9949146   1.0078250   1.0078250  15.9949146   1.0078250   1.0078250  15.9949146
 NucSpn=           0           1           1           0           1           1           0           1           1           0
 AtZEff=   0.0000000   0.0000000   0.0000000   0.0000000   0.0000000   0.0000000   0.0000000   0.0000000   0.0000000   0.0000000
 NQMom=    0.0000000   0.0000000   0.0000000   0.0000000   0.0000000   0.0000000   0.0000000   0.0000000   0.0000000   0.0000000
 NMagM=    0.0000000   2.7928460   2.7928460   0.0000000   2.7928460   2.7928460   0.0000000   2.7928460   2.7928460   0.0000000
 AtZNuc=   8.0000000   1.0000000   1.0000000   8.0000000   1.0000000   1.0000000   8.0000000   1.0000000   1.0000000   8.0000000

  Atom       291         292         293         294         295         296         297         298         299         300
 IAtWgt=           1           1          16           1           1          16           1           1          16           1
 AtmWgt=   1.0078250   1.0078250  15.9949146   1.0078250   1.0078250  15.9949146   1.0078250   1.0078250  15.9949146   1.0078250
 NucSpn=           1           1           0           1           1           0           1           1           0           1
 AtZEff=   0.0000000   0.0000000   0.0000000   0.0000000   0.0000000   0.0000000   0.0000000   0.0000000   0.0000000   0.0000000
 NQMom=    0.0000000   0.0000000   0.0000000   0.0000000   0.0000000   0.0000000   0.0000000   0.0000000   0.0000000   0.0000000
 NMagM=    2.7928460   2.7928460   0.0000000   2.7928460   2.7928460   0.0000000   2.7928460   2.7928460   0.0000000   2.7928460
 AtZNuc=   1.0000000   1.0000000   8.0000000   1.0000000   1.0000000   8.0000000   1.0000000   1.0000000   8.0000000   1.0000000

  Atom       301         302         303         304         305         306         307         308         309         310
 IAtWgt=           1          16           1           1          16           1           1          16           1           1
 AtmWgt=   1.0078250  15.9949146   1.0078250   1.0078250  15.9949146   1.0078250   1.0078250  15.9949146   1.0078250   1.0078250
 NucSpn=           1           0           1           1           0           1           1           0           1           1
 AtZEff=   0.0000000   0.0000000   0.0000000   0.0000000   0.0000000   0.0000000   0.0000000   0.0000000   0.0000000   0.0000000
 NQMom=    0.0000000   0.0000000   0.0000000   0.0000000   0.0000000   0.0000000   0.0000000   0.0000000   0.0000000   0.0000000
 NMagM=    2.7928460   0.0000000   2.7928460   2.7928460   0.0000000   2.7928460   2.7928460   0.0000000   2.7928460   2.7928460
 AtZNuc=   1.0000000   8.0000000   1.0000000   1.0000000   8.0000000   1.0000000   1.0000000   8.0000000   1.0000000   1.0000000

  Atom       311         312         313         314         315         316         317         318         319         320
 IAtWgt=          16           1           1          16           1           1          16           1           1          16
 AtmWgt=  15.9949146   1.0078250   1.0078250  15.9949146   1.0078250   1.0078250  15.9949146   1.0078250   1.0078250  15.9949146
 NucSpn=           0           1           1           0           1           1           0           1           1           0
 AtZEff=   0.0000000   0.0000000   0.0000000   0.0000000   0.0000000   0.0000000   0.0000000   0.0000000   0.0000000   0.0000000
 NQMom=    0.0000000   0.0000000   0.0000000   0.0000000   0.0000000   0.0000000   0.0000000   0.0000000   0.0000000   0.0000000
 NMagM=    0.0000000   2.7928460   2.7928460   0.0000000   2.7928460   2.7928460   0.0000000   2.7928460   2.7928460   0.0000000
 AtZNuc=   8.0000000   1.0000000   1.0000000   8.0000000   1.0000000   1.0000000   8.0000000   1.0000000   1.0000000   8.0000000

  Atom       321         322         323         324         325         326         327         328         329         330
 IAtWgt=           1           1          16           1           1          16           1           1          16           1
 AtmWgt=   1.0078250   1.0078250  15.9949146   1.0078250   1.0078250  15.9949146   1.0078250   1.0078250  15.9949146   1.0078250
 NucSpn=           1           1           0           1           1           0           1           1           0           1
 AtZEff=   0.0000000   0.0000000   0.0000000   0.0000000   0.0000000   0.0000000   0.0000000   0.0000000   0.0000000   0.0000000
 NQMom=    0.0000000   0.0000000   0.0000000   0.0000000   0.0000000   0.0000000   0.0000000   0.0000000   0.0000000   0.0000000
 NMagM=    2.7928460   2.7928460   0.0000000   2.7928460   2.7928460   0.0000000   2.7928460   2.7928460   0.0000000   2.7928460
 AtZNuc=   1.0000000   1.0000000   8.0000000   1.0000000   1.0000000   8.0000000   1.0000000   1.0000000   8.0000000   1.0000000

  Atom       331         332         333         334         335         336         337         338         339         340
 IAtWgt=           1          16           1           1          16           1           1          16           1           1
 AtmWgt=   1.0078250  15.9949146   1.0078250   1.0078250  15.9949146   1.0078250   1.0078250  15.9949146   1.0078250   1.0078250
 NucSpn=           1           0           1           1           0           1           1           0           1           1
 AtZEff=   0.0000000   0.0000000   0.0000000   0.0000000   0.0000000   0.0000000   0.0000000   0.0000000   0.0000000   0.0000000
 NQMom=    0.0000000   0.0000000   0.0000000   0.0000000   0.0000000   0.0000000   0.0000000   0.0000000   0.0000000   0.0000000
 NMagM=    2.7928460   0.0000000   2.7928460   2.7928460   0.0000000   2.7928460   2.7928460   0.0000000   2.7928460   2.7928460
 AtZNuc=   1.0000000   8.0000000   1.0000000   1.0000000   8.0000000   1.0000000   1.0000000   8.0000000   1.0000000   1.0000000

  Atom       341         342         343         344         345         346         347         348         349         350
 IAtWgt=          16           1           1          16           1           1          16           1           1          16
 AtmWgt=  15.9949146   1.0078250   1.0078250  15.9949146   1.0078250   1.0078250  15.9949146   1.0078250   1.0078250  15.9949146
 NucSpn=           0           1           1           0           1           1           0           1           1           0
 AtZEff=   0.0000000   0.0000000   0.0000000   0.0000000   0.0000000   0.0000000   0.0000000   0.0000000   0.0000000   0.0000000
 NQMom=    0.0000000   0.0000000   0.0000000   0.0000000   0.0000000   0.0000000   0.0000000   0.0000000   0.0000000   0.0000000
 NMagM=    0.0000000   2.7928460   2.7928460   0.0000000   2.7928460   2.7928460   0.0000000   2.7928460   2.7928460   0.0000000
 AtZNuc=   8.0000000   1.0000000   1.0000000   8.0000000   1.0000000   1.0000000   8.0000000   1.0000000   1.0000000   8.0000000

  Atom       351         352         353         354         355         356         357         358         359         360
 IAtWgt=           1           1          16           1           1          16           1           1          16           1
 AtmWgt=   1.0078250   1.0078250  15.9949146   1.0078250   1.0078250  15.9949146   1.0078250   1.0078250  15.9949146   1.0078250
 NucSpn=           1           1           0           1           1           0           1           1           0           1
 AtZEff=   0.0000000   0.0000000   0.0000000   0.0000000   0.0000000   0.0000000   0.0000000   0.0000000   0.0000000   0.0000000
 NQMom=    0.0000000   0.0000000   0.0000000   0.0000000   0.0000000   0.0000000   0.0000000   0.0000000   0.0000000   0.0000000
 NMagM=    2.7928460   2.7928460   0.0000000   2.7928460   2.7928460   0.0000000   2.7928460   2.7928460   0.0000000   2.7928460
 AtZNuc=   1.0000000   1.0000000   8.0000000   1.0000000   1.0000000   8.0000000   1.0000000   1.0000000   8.0000000   1.0000000

  Atom       361         362         363         364         365         366         367         368         369         370
 IAtWgt=           1          16           1           1          16           1           1          16           1           1
 AtmWgt=   1.0078250  15.9949146   1.0078250   1.0078250  15.9949146   1.0078250   1.0078250  15.9949146   1.0078250   1.0078250
 NucSpn=           1           0           1           1           0           1           1           0           1           1
 AtZEff=   0.0000000   0.0000000   0.0000000   0.0000000   0.0000000   0.0000000   0.0000000   0.0000000   0.0000000   0.0000000
 NQMom=    0.0000000   0.0000000   0.0000000   0.0000000   0.0000000   0.0000000   0.0000000   0.0000000   0.0000000   0.0000000
 NMagM=    2.7928460   0.0000000   2.7928460   2.7928460   0.0000000   2.7928460   2.7928460   0.0000000   2.7928460   2.7928460
 AtZNuc=   1.0000000   8.0000000   1.0000000   1.0000000   8.0000000   1.0000000   1.0000000   8.0000000   1.0000000   1.0000000

  Atom       371         372         373         374         375         376         377         378         379         380
 IAtWgt=          16           1           1          16           1           1          16           1           1          16
 AtmWgt=  15.9949146   1.0078250   1.0078250  15.9949146   1.0078250   1.0078250  15.9949146   1.0078250   1.0078250  15.9949146
 NucSpn=           0           1           1           0           1           1           0           1           1           0
 AtZEff=   0.0000000   0.0000000   0.0000000   0.0000000   0.0000000   0.0000000   0.0000000   0.0000000   0.0000000   0.0000000
 NQMom=    0.0000000   0.0000000   0.0000000   0.0000000   0.0000000   0.0000000   0.0000000   0.0000000   0.0000000   0.0000000
 NMagM=    0.0000000   2.7928460   2.7928460   0.0000000   2.7928460   2.7928460   0.0000000   2.7928460   2.7928460   0.0000000
 AtZNuc=   8.0000000   1.0000000   1.0000000   8.0000000   1.0000000   1.0000000   8.0000000   1.0000000   1.0000000   8.0000000

  Atom       381         382         383         384         385
 IAtWgt=           1           1          16           1           1
 AtmWgt=   1.0078250   1.0078250  15.9949146   1.0078250   1.0078250
 NucSpn=           1           1           0           1           1
 AtZEff=   0.0000000   0.0000000   0.0000000   0.0000000   0.0000000
 NQMom=    0.0000000   0.0000000   0.0000000   0.0000000   0.0000000
 NMagM=    2.7928460   2.7928460   0.0000000   2.7928460   2.7928460
 AtZNuc=   1.0000000   1.0000000   8.0000000   1.0000000   1.0000000
 Leave Link  101 at Sat May  5 22:06:30 2018, MaxMem= 14763950080 cpu:        33.3
 (Enter /cm/shared/gaussian/g09.e01/intel64-sandybridge/g09/l103.exe)

 GradGradGradGradGradGradGradGradGradGradGradGradGradGradGradGradGradGrad
 Berny optimization.
 Initialization pass.
 Trust Radius=3.00D-01 FncErr=1.00D-07 GrdErr=1.00D-07
 Number of steps in this run=      2 maximum allowed number of steps=      2.
 GradGradGradGradGradGradGradGradGradGradGradGradGradGradGradGradGradGrad

 Leave Link  103 at Sat May  5 22:06:30 2018, MaxMem= 14763950080 cpu:         3.8
 (Enter /cm/shared/gaussian/g09.e01/intel64-sandybridge/g09/l202.exe)
 Symmetry turned off by external request.
 Stoichiometry    BrH256O128(1-)
 Framework group  C1[X(BrH256O128)]
 Deg. of freedom  1149
 Full point group                 C1      NOp   1
                          Input orientation:                          
 ---------------------------------------------------------------------
 Center     Atomic      Atomic             Coordinates (Angstroms)
 Number     Number       Type             X           Y           Z
 ---------------------------------------------------------------------
      1         35           0       20.000000   20.000000   20.000000
      2          8           0       21.980000   19.330000   22.330000
      3          1           0       21.340000   19.560000   21.650000
      4          1           0       21.710000   18.460000   22.620000
      5          8           0       17.500000   21.090000   21.680000
      6          1           0       18.250000   20.700000   21.220000
      7          1           0       17.230000   20.420000   22.310000
      8          8           0       19.430000   17.780000   17.670000
      9          1           0       19.780000   18.290000   18.410000
     10          1           0       19.440000   16.880000   17.980000
     11          8           0       20.530000   16.820000   20.390000
     12          1           0       19.950000   17.540000   20.620000
     13          1           0       21.380000   17.240000   20.210000
     14          8           0       20.500000   23.460000   20.220000
     15          1           0       20.000000   22.650000   20.130000
     16          1           0       20.750000   23.490000   21.150000
     17          8           0       18.950000   22.850000   17.630000
     18          1           0       18.920000   23.790000   17.460000
     19          1           0       19.790000   22.710000   18.070000
     20          8           0       16.570000   21.670000   18.780000
     21          1           0       16.960000   22.110000   19.540000
     22          1           0       17.300000   21.560000   18.170000
     23          8           0       19.520000   19.410000   15.680000
     24          1           0       20.400000   19.790000   15.690000
     25          1           0       19.510000   18.810000   16.420000
     26          8           0       23.550000   18.610000   17.830000
     27          1           0       22.980000   19.370000   17.700000
     28          1           0       23.310000   18.260000   18.680000
     29          8           0       21.020000   20.770000   24.380000
     30          1           0       21.530000   21.580000   24.430000
     31          1           0       21.340000   20.330000   23.590000
     32          8           0       16.820000   16.910000   18.980000
     33          1           0       17.770000   16.970000   18.930000
     34          1           0       16.520000   17.810000   18.800000
     35          8           0       22.880000   22.350000   22.450000
     36          1           0       22.980000   22.310000   21.500000
     37          1           0       21.950000   22.210000   22.600000
     38          8           0       24.310000   20.360000   21.340000
     39          1           0       24.010000   21.020000   20.710000
     40          1           0       23.520000   20.080000   21.790000
     41          8           0       23.490000   17.580000   20.260000
     42          1           0       23.640000   17.170000   21.110000
     43          1           0       23.820000   18.470000   20.370000
     44          8           0       23.650000   22.520000   19.940000
     45          1           0       23.300000   23.240000   19.430000
     46          1           0       24.490000   22.310000   19.530000
     47          8           0       14.940000   20.020000   20.620000
     48          1           0       14.680000   20.330000   21.490000
     49          1           0       15.620000   20.640000   20.340000
     50          8           0       22.250000   24.370000   18.550000
     51          1           0       21.600000   24.210000   19.230000
     52          1           0       21.950000   23.850000   17.800000
     53          8           0       17.480000   21.000000   15.780000
     54          1           0       18.280000   20.490000   15.790000
     55          1           0       17.700000   21.810000   16.230000
     56          8           0       21.980000   22.790000   16.500000
     57          1           0       21.940000   21.880000   16.210000
     58          1           0       21.860000   23.300000   15.690000
     59          8           0       18.360000   21.260000   24.780000
     60          1           0       19.280000   20.990000   24.660000
     61          1           0       17.890000   20.800000   24.090000
     62          8           0       17.280000   17.350000   16.120000
     63          1           0       16.870000   16.970000   16.900000
     64          1           0       18.150000   17.610000   16.410000
     65          8           0       16.990000   18.990000   23.550000
     66          1           0       17.610000   18.540000   24.120000
     67          1           0       16.130000   18.820000   23.940000
     68          8           0       17.470000   24.050000   23.210000
     69          1           0       16.590000   24.420000   23.140000
     70          1           0       17.570000   23.520000   22.410000
     71          8           0       21.460000   17.100000   23.710000
     72          1           0       21.360000   17.230000   24.650000
     73          1           0       20.820000   16.430000   23.490000
     74          8           0       20.260000   23.870000   23.050000
     75          1           0       19.360000   23.640000   23.280000
     76          1           0       20.250000   24.820000   22.980000
     77          8           0       20.050000   14.740000   22.240000
     78          1           0       20.320000   15.170000   21.430000
     79          1           0       19.100000   14.760000   22.220000
     80          8           0       14.900000   18.970000   18.090000
     81          1           0       15.070000   19.320000   18.970000
     82          1           0       14.680000   19.740000   17.570000
     83          8           0       22.170000   20.280000   15.230000
     84          1           0       22.480000   19.420000   14.950000
     85          1           0       21.800000   20.670000   14.440000
     86          8           0       23.720000   16.370000   22.550000
     87          1           0       23.590000   15.440000   22.360000
     88          1           0       22.880000   16.670000   22.900000
     89          8           0       14.780000   21.410000   16.740000
     90          1           0       15.530000   21.570000   17.310000
     91          1           0       15.060000   21.710000   15.880000
     92          8           0       24.320000   21.180000   24.500000
     93          1           0       24.280000   21.940000   25.080000
     94          1           0       23.920000   21.480000   23.690000
     95          8           0       19.130000   17.940000   25.380000
     96          1           0       18.900000   17.520000   26.220000
     97          1           0       19.440000   18.810000   25.630000
     98          8           0       16.160000   24.320000   20.730000
     99          1           0       15.650000   24.530000   19.940000
    100          1           0       15.840000   24.940000   21.390000
    101          8           0       19.790000   14.710000   17.400000
    102          1           0       20.390000   14.090000   17.810000
    103          1           0       20.280000   15.030000   16.640000
    104          8           0       18.100000   25.960000   19.320000
    105          1           0       18.660000   26.360000   19.990000
    106          1           0       17.530000   25.360000   19.800000
    107          8           0       21.490000   23.270000   25.400000
    108          1           0       21.320000   23.700000   24.560000
    109          1           0       20.880000   23.690000   26.010000
    110          8           0       22.180000   20.370000   26.630000
    111          1           0       23.100000   20.270000   26.380000
    112          1           0       21.720000   20.500000   25.800000
    113          8           0       26.940000   20.200000   21.230000
    114          1           0       27.030000   19.300000   20.930000
    115          1           0       26.000000   20.380000   21.190000
    116          8           0       25.070000   18.190000   24.450000
    117          1           0       24.880000   17.440000   23.890000
    118          1           0       24.530000   18.900000   24.100000
    119          8           0       25.420000   15.910000   18.700000
    120          1           0       24.910000   16.210000   19.460000
    121          1           0       25.510000   16.680000   18.140000
    122          8           0       15.110000   15.310000   20.900000
    123          1           0       15.530000   15.770000   21.630000
    124          1           0       15.610000   15.580000   20.130000
    125          8           0       18.410000   19.460000   13.070000
    126          1           0       17.510000   19.340000   12.790000
    127          1           0       18.340000   19.730000   13.990000
    128          8           0       26.010000   21.940000   18.620000
    129          1           0       26.520000   21.150000   18.450000
    130          1           0       25.490000   22.060000   17.830000
    131          8           0       23.880000   24.630000   23.880000
    132          1           0       23.570000   23.930000   23.310000
    133          1           0       23.250000   25.340000   23.760000
    134          8           0       14.440000   22.150000   22.620000
    135          1           0       14.890000   22.880000   22.200000
    136          1           0       13.520000   22.250000   22.350000
    137          8           0       24.990000   22.600000   16.260000
    138          1           0       24.060000   22.760000   16.100000
    139          1           0       25.350000   22.420000   15.390000
    140          8           0       21.130000   15.750000   15.260000
    141          1           0       21.060000   15.050000   14.610000
    142          1           0       20.830000   16.530000   14.810000
    143          8           0       26.000000   17.750000   16.660000
    144          1           0       26.200000   18.080000   15.790000
    145          1           0       25.070000   17.910000   16.770000
    146          8           0       23.230000   14.590000   17.080000
    147          1           0       23.590000   15.450000   17.250000
    148          1           0       22.560000   14.740000   16.400000
    149          8           0       15.570000   22.480000   25.010000
    150          1           0       16.430000   22.720000   24.680000
    151          1           0       15.190000   21.930000   24.320000
    152          8           0       17.440000   14.890000   23.180000
    153          1           0       17.060000   14.050000   23.420000
    154          1           0       17.610000   15.330000   24.010000
    155          8           0       15.680000   24.360000   15.870000
    156          1           0       15.600000   25.310000   15.860000
    157          1           0       16.480000   24.200000   16.380000
    158          8           0       18.700000   23.850000   26.280000
    159          1           0       18.700000   23.080000   25.710000
    160          1           0       18.190000   23.580000   27.050000
    161          8           0       17.900000   14.580000   15.410000
    162          1           0       17.130000   15.100000   15.630000
    163          1           0       18.550000   14.820000   16.070000
    164          8           0       15.280000   18.910000   14.550000
    165          1           0       15.570000   18.360000   15.280000
    166          1           0       15.640000   19.780000   14.730000
    167          8           0       18.710000   25.490000   16.360000
    168          1           0       19.270000   26.140000   15.940000
    169          1           0       18.480000   25.880000   17.210000
    170          8           0       13.350000   17.570000   22.410000
    171          1           0       13.810000   18.200000   21.840000
    172          1           0       13.610000   16.710000   22.060000
    173          8           0       24.350000   26.110000   18.630000
    174          1           0       23.600000   25.530000   18.720000
    175          1           0       25.010000   25.740000   19.220000
    176          8           0       19.330000   23.520000   14.200000
    177          1           0       18.410000   23.440000   13.930000
    178          1           0       19.340000   24.270000   14.790000
    179          8           0       20.710000   12.710000   19.000000
    180          1           0       21.250000   13.310000   19.520000
    181          1           0       20.490000   12.010000   19.610000
    182          8           0       23.130000   13.930000   19.750000
    183          1           0       23.850000   13.630000   20.310000
    184          1           0       23.550000   14.160000   18.920000
    185          8           0       13.650000   16.460000   17.860000
    186          1           0       14.020000   17.350000   17.910000
    187          1           0       12.910000   16.480000   18.460000
    188          8           0       12.200000   20.210000   19.870000
    189          1           0       11.830000   20.420000   19.010000
    190          1           0       13.140000   20.400000   19.770000
    191          8           0       20.530000   17.620000   13.140000
    192          1           0       20.400000   17.430000   12.210000
    193          1           0       19.810000   18.220000   13.360000
    194          8           0       23.070000   17.930000   13.940000
    195          1           0       23.680000   17.200000   13.800000
    196          1           0       22.200000   17.540000   13.850000
    197          8           0       21.630000   22.400000   13.280000
    198          1           0       22.160000   23.180000   13.450000
    199          1           0       20.740000   22.660000   13.540000
    200          8           0       20.340000   26.810000   22.130000
    201          1           0       20.860000   26.910000   21.330000
    202          1           0       19.480000   27.140000   21.900000
    203          8           0       17.190000   21.710000   27.360000
    204          1           0       16.240000   21.830000   27.440000
    205          1           0       17.320000   21.490000   26.440000
    206          8           0       21.090000   14.250000   24.780000
    207          1           0       20.790000   14.030000   23.890000
[...]
   Y335      22.75230  -0.01053   0.00000  -0.00419  -0.00388  22.74843
   Z335      29.30965  -0.01409   0.00000  -0.01127  -0.01205  29.29760
   X336      44.74871   0.00034   0.00000   0.00022   0.00042  44.74913
   Y336      23.03576   0.00506   0.00000   0.00680   0.00717  23.04293
   Z336      29.17737   0.00267   0.00000   0.00386   0.00308  29.18045
   X337      42.38656   0.00001   0.00000   0.00326   0.00343  42.38999
   Y337      24.05621   0.00738   0.00000  -0.00027   0.00000  24.05622
   Z337      30.40569   0.01340   0.00000   0.01306   0.01231  30.41800
   X338      22.82789  -0.01014   0.00000  -0.00606  -0.00658  22.82131
   Y338      47.28095   0.01127   0.00000   0.00750   0.00697  47.28792
   Z338      38.83387   0.00346   0.00000  -0.00098  -0.00111  38.83277
   X339      22.18538  -0.00267   0.00000  -0.00071  -0.00118  22.18420
   Y339      45.61799  -0.01224   0.00000  -0.00925  -0.00980  45.60819
   Z339      38.56931   0.00295   0.00000   0.00717   0.00701  38.57632
   X340      24.52865   0.01359   0.00000   0.00961   0.00909  24.53774
   Y340      47.20536   0.00035   0.00000   0.00230   0.00183  47.20719
   Z340      38.24806  -0.00387   0.00000  -0.00152  -0.00165  38.24640
   X341      27.62780   0.00946   0.00000   0.00955   0.00977  27.63757
   Y341      23.71606  -0.02054   0.00000  -0.01700  -0.01737  23.69870
   Z341      38.45593  -0.00725   0.00000  -0.00306  -0.00373  38.45220
   X342      27.23095  -0.00326   0.00000  -0.00432  -0.00406  27.22690
   Y342      22.94128   0.00018   0.00000   0.00055   0.00014  22.94141
   Z342      40.04330   0.00607   0.00000   0.00668   0.00600  40.04929
   X343      27.21206   0.00197   0.00000   0.00802   0.00819  27.22025
   Y343      25.45461   0.01110   0.00000   0.00185   0.00146  25.45607
   Z343      38.68269   0.00211   0.00000  -0.00012  -0.00075  38.68194
   X344      22.14759  -0.00299   0.00000  -0.00215  -0.00244  22.14515
   Y344      38.28585   0.01801   0.00000   0.01317   0.01281  38.29866
   Z344      29.87657  -0.00331   0.00000  -0.00059  -0.00090  29.87567
   X345      21.75075   0.00072   0.00000   0.00303   0.00277  21.75352
   Y345      37.01973  -0.00751   0.00000  -0.00365  -0.00399  37.01574
   Z345      28.64825  -0.00382   0.00000  -0.00082  -0.00116  28.64709
   X346      22.71451   0.00567   0.00000   0.00575   0.00550  22.72000
   Y346      37.35989  -0.00965   0.00000  -0.00696  -0.00733  37.35256
   Z346      31.31276   0.00660   0.00000   0.00142   0.00108  31.31384
   X347      45.01328   0.01070   0.00000   0.00889   0.00887  45.02215
   Y347      28.98840   0.00839   0.00000   0.00419   0.00464  28.99304
   Z347      25.90815   0.00861   0.00000   0.00433   0.00367  25.91182
   X348      45.97704   0.00436   0.00000   0.00399   0.00397  45.98101
   Y348      28.66715  -0.00608   0.00000  -0.00843  -0.00792  28.65923
   Z348      24.41526  -0.00876   0.00000  -0.00688  -0.00755  24.40771
   X349      43.42591  -0.00953   0.00000  -0.00342  -0.00341  43.42249
   Y349      28.19471  -0.00675   0.00000  -0.00468  -0.00427  28.19045
   Z349      25.60579  -0.00254   0.00000  -0.00010  -0.00077  25.60502
   X350      28.64825  -0.00589   0.00000  -0.00367  -0.00412  28.64413
   Y350      46.99749   0.01633   0.00000   0.01187   0.01129  47.00878
   Z350      49.73759   0.00484   0.00000   0.00465   0.00448  49.74207
   X351      28.64825   0.00210   0.00000   0.00205   0.00165  28.64990
   Y351      45.24004  -0.01126   0.00000  -0.00269  -0.00326  45.23678
   Z351      49.30295  -0.00765   0.00000  -0.00904  -0.00925  49.29370
   X352      30.40569   0.00454   0.00000   0.00420   0.00374  30.40943
   Y352      47.41323  -0.00169   0.00000  -0.00167  -0.00220  47.41103
   Z352      49.94546  -0.00131   0.00000  -0.00216  -0.00233  49.94314
   X353      50.17223   0.00352   0.00000   0.00181   0.00117  50.17340
   Y353      49.49193   0.01223   0.00000   0.00619   0.00668  49.49860
   Z353      31.95527  -0.01637   0.00000  -0.01605  -0.01630  31.93897
   X354      51.17378   0.00604   0.00000   0.00775   0.00715  51.18094
   Y354      48.11243  -0.00747   0.00000  -0.00723  -0.00670  48.10573
   Z354      31.33166   0.00120   0.00000   0.00334   0.00306  31.33472
   X355      49.22737  -0.00785   0.00000  -0.00479  -0.00539  49.22198
   Y355      48.79273  -0.00427   0.00000   0.00047   0.00090  48.79362
   Z355      33.31587   0.00691   0.00000  -0.00066  -0.00091  33.31496
   X356      52.85564  -0.01027   0.00000  -0.00665  -0.00715  52.84849
   Y356      44.80541   0.00228   0.00000  -0.00343  -0.00282  44.80259
   Z356      30.36790  -0.00872   0.00000  -0.01141  -0.01177  30.35612
   X357      54.55639   0.01051   0.00000   0.00667   0.00620  54.56259
   Y357      44.23849  -0.00147   0.00000   0.00110   0.00176  44.24025
   Z357      30.53797   0.00303   0.00000   0.00415   0.00376  30.54173
   X358      51.87298  -0.00420   0.00000  -0.00533  -0.00578  51.86720
   Y358      43.55819   0.00054   0.00000   0.00284   0.00340  43.56159
   Z358      31.25607   0.00418   0.00000   0.00577   0.00539  31.26146
   X359      24.79321  -0.01115   0.00000  -0.00839  -0.00830  24.78491
   Y359      26.60734  -0.02321   0.00000  -0.01546  -0.01578  26.59157
   Z359      31.67181  -0.01326   0.00000  -0.01076  -0.01135  31.66046
   X360      25.15225   0.00813   0.00000   0.00659   0.00663  25.15889
   Y360      28.32699   0.01587   0.00000   0.00449   0.00418  28.33118
   Z360      32.04976   0.00678   0.00000   0.00448   0.00393  32.05369
   X361      25.90815   0.00237   0.00000   0.00042   0.00055  25.90869
   Y361      25.64358   0.00232   0.00000   0.00337   0.00307  25.64665
   Z361      32.73006   0.00411   0.00000   0.00394   0.00333  32.73338
   X362      44.67313  -0.01869   0.00000  -0.01670  -0.01747  44.65565
   Y362      54.29183   0.02070   0.00000   0.00932   0.00957  54.30140
   Z362      34.63868   0.00600   0.00000   0.00194   0.00183  34.64051
   X363      45.24004   0.01351   0.00000   0.01381   0.01309  45.25313
   Y363      52.59108  -0.02153   0.00000  -0.01059  -0.01032  52.58076
   Z363      34.84655   0.00513   0.00000   0.00759   0.00744  34.85399
   X364      45.24004   0.00456   0.00000   0.00413   0.00333  45.24337
   Y364      54.76426  -0.00033   0.00000  -0.00148  -0.00117  54.76309
   Z364      32.99462  -0.00903   0.00000  -0.00567  -0.00577  32.98885
   X365      33.16469   0.00114   0.00000   0.00493   0.00512  33.16982
   Y365      22.75230  -0.02465   0.00000  -0.02420  -0.02417  22.72813
   Z365      28.15692  -0.02057   0.00000  -0.01519  -0.01591  28.14101
   X366      32.76785  -0.00038   0.00000   0.00087   0.00109  32.76894
   Y366      22.46884   0.00494   0.00000   0.00628   0.00626  22.47510
   Z366      29.89547   0.01044   0.00000   0.00384   0.00311  29.89858
   X367      33.78830  -0.00389   0.00000  -0.01169  -0.01155  33.77675
   Y367      24.45306   0.00963   0.00000   0.00069   0.00074  24.45380
   Z367      28.11912   0.00552   0.00000   0.00557   0.00488  28.12400
   X368      19.36969  -0.01219   0.00000  -0.00722  -0.00735  19.36235
   Y368      35.18670  -0.01323   0.00000  -0.00734  -0.00802  35.17868
   Z368      40.44014   0.00707   0.00000   0.00593   0.00557  40.44570
   X369      21.03265   0.01331   0.00000   0.00693   0.00679  21.03944
   Y369      35.58354   0.00524   0.00000   0.00351   0.00290  35.58644
   Z369      39.87322  -0.00529   0.00000  -0.00299  -0.00336  39.86987
   X370      18.48152  -0.00116   0.00000   0.00063   0.00045  18.48197
   Y370      36.75517   0.00852   0.00000   0.00676   0.00605  36.76123
   Z370      40.38345  -0.00255   0.00000  -0.00323  -0.00355  40.37989
   X371      47.14867  -0.00118   0.00000  -0.00223  -0.00274  47.14593
   Y371      48.90611   0.01028   0.00000   0.01090   0.01090  48.91702
   Z371      49.77539   0.00730   0.00000   0.00482   0.00458  49.77997
   X372      48.49037  -0.00020   0.00000   0.00039  -0.00015  48.49022
   Y372      49.75649  -0.00244   0.00000  -0.00268  -0.00262  49.75387
   Z372      48.88722  -0.00319   0.00000  -0.00373  -0.00396  48.88325
   X373      46.63844   0.00381   0.00000   0.00749   0.00702  46.64546
   Y373      47.58330  -0.00026   0.00000   0.00469   0.00470  47.58801
   Z373      48.64155  -0.00728   0.00000  -0.00582  -0.00609  48.63546
   X374      29.55532   0.00001   0.00000  -0.00246  -0.00316  29.55216
   Y374      51.28717  -0.00829   0.00000  -0.00789  -0.00804  51.27912
   Z374      31.31276  -0.00640   0.00000  -0.00479  -0.00487  31.30789
   X375      29.12068  -0.00066   0.00000   0.00200   0.00129  29.12197
   Y375      52.21313   0.00577   0.00000   0.00520   0.00500  52.21814
   Z375      32.80565   0.00261   0.00000  -0.00146  -0.00152  32.80412
   X376      28.55376  -0.00083   0.00000   0.00006  -0.00067  28.55309
   Y376      52.04306   0.00477   0.00000   0.00705   0.00689  52.04995
   Z376      29.98995   0.00025   0.00000   0.00036   0.00031  29.99026
   X377      31.40725  -0.01154   0.00000  -0.01432  -0.01405  31.39320
   Y377      23.64047  -0.00133   0.00000  -0.01073  -0.01112  23.62936
   Z377      44.95658   0.01270   0.00000   0.01071   0.01002  44.96660
   X378      32.76785   0.00320   0.00000   0.00277   0.00307  32.77092
   Y378      22.99797  -0.00277   0.00000  -0.00264  -0.00301  22.99496
   Z378      45.97704  -0.00139   0.00000  -0.00208  -0.00279  45.97425
   X379      31.65291   0.00744   0.00000   0.00915   0.00944  31.66235
   Y379      22.82789  -0.00709   0.00000  -0.00454  -0.00489  22.82301
   Z379      43.35032  -0.01116   0.00000  -0.00635  -0.00706  43.34326
   X380      50.28561  -0.00454   0.00000  -0.00003  -0.00026  50.28535
   Y380      35.62134  -0.00140   0.00000  -0.00377  -0.00315  35.61819
   Z380      26.30499   0.00914   0.00000   0.00546   0.00491  26.30990
   X381      51.07930   0.00434   0.00000   0.00212   0.00185  51.08115
   Y381      36.66069   0.00615   0.00000   0.00342   0.00409  36.66477
   Z381      25.05777  -0.00839   0.00000  -0.00546  -0.00599  25.05178
   X382      50.68245   0.00198   0.00000   0.00162   0.00145  50.68390
   Y382      33.93948  -0.00949   0.00000  -0.00959  -0.00895  33.93053
   Z382      25.77586  -0.00285   0.00000  -0.00197  -0.00256  25.77330
   X383      51.96747   0.02751   0.00000   0.02238   0.02234  51.98981
   Y383      34.27963  -0.02134   0.00000  -0.01871  -0.01853  34.26110
   Z383      49.17067  -0.00168   0.00000   0.00705   0.00646  49.17714
   X384      50.66356  -0.01723   0.00000  -0.00738  -0.00745  50.65611
   Y384      35.35678   0.00569   0.00000  -0.00395  -0.00383  35.35294
   Z384      49.77539  -0.00004   0.00000  -0.00508  -0.00564  49.76975
   X385      51.19268  -0.00374   0.00000  -0.00374  -0.00376  51.18892
   Y385      33.31587   0.01197   0.00000   0.01592   0.01610  33.33197
   Z385      47.82897   0.00357   0.00000   0.00288   0.00228  47.83125
         Item               Value     Threshold  Converged?
 Maximum Force            0.044705     0.000450     NO 
 RMS     Force            0.010596     0.000300     NO 
 Maximum Displacement     0.032170     0.001800     NO 
 RMS     Displacement     0.008820     0.001200     NO 
 Predicted change in Energy=-7.495763D-02
 GradGradGradGradGradGradGradGradGradGradGradGradGradGradGradGradGradGrad

 Leave Link  103 at Sun May  6 00:45:06 2018, MaxMem= 14763950080 cpu:      2697.1
 (Enter /cm/shared/gaussian/g09.e01/intel64-sandybridge/g09/l9999.exe)
 1\1\GINC-POPLE03\Force\RPBE1PBE\CC-pVDZ\Br1H256O128(1-)\M.PELUSO\06-Ma
 y-2018\0\\#p PBE1PBE/cc-pvDZ force Counterpoise=2 noSymm\\forces on ch
 loride comput - NWATER: 128\\-1,1\Br,20.,20.,20.\O,21.98,19.33,22.33\H
 ,21.34,19.56,21.65\H,21.71,18.46,22.62\O,17.5,21.09,21.68\H,18.25,20.7
 ,21.22\H,17.23,20.42,22.31\O,19.43,17.78,17.67\H,19.78,18.29,18.41\H,1
 9.44,16.88,17.98\O,20.53,16.82,20.39\H,19.95,17.54,20.62\H,21.38,17.24
 ,20.21\O,20.5,23.46,20.22\H,20.,22.65,20.13\H,20.75,23.49,21.15\O,18.9
 5,22.85,17.63\H,18.92,23.79,17.46\H,19.79,22.71,18.07\O,16.57,21.67,18
 .78\H,16.96,22.11,19.54\H,17.3,21.56,18.17\O,19.52,19.41,15.68\H,20.4,
 19.79,15.69\H,19.51,18.81,16.42\O,23.55,18.61,17.83\H,22.98,19.37,17.7
 \H,23.31,18.26,18.68\O,21.02,20.77,24.38\H,21.53,21.58,24.43\H,21.34,2
 0.33,23.59\O,16.82,16.91,18.98\H,17.77,16.97,18.93\H,16.52,17.81,18.8\
 O,22.88,22.35,22.45\H,22.98,22.31,21.5\H,21.95,22.21,22.6\O,24.31,20.3
 6,21.34\H,24.01,21.02,20.71\H,23.52,20.08,21.79\O,23.49,17.58,20.26\H,
 23.64,17.17,21.11\H,23.82,18.47,20.37\O,23.65,22.52,19.94\H,23.3,23.24
 ,19.43\H,24.49,22.31,19.53\O,14.94,20.02,20.62\H,14.68,20.33,21.49\H,1
 5.62,20.64,20.34\O,22.25,24.37,18.55\H,21.6,24.21,19.23\H,21.95,23.85,
 17.8\O,17.48,21.,15.78\H,18.28,20.49,15.79\H,17.7,21.81,16.23\O,21.98,
 22.79,16.5\H,21.94,21.88,16.21\H,21.86,23.3,15.69\O,18.36,21.26,24.78\
 H,19.28,20.99,24.66\H,17.89,20.8,24.09\O,17.28,17.35,16.12\H,16.87,16.
 97,16.9\H,18.15,17.61,16.41\O,16.99,18.99,23.55\H,17.61,18.54,24.12\H,
 16.13,18.82,23.94\O,17.47,24.05,23.21\H,16.59,24.42,23.14\H,17.57,23.5
 2,22.41\O,21.46,17.1,23.71\H,21.36,17.23,24.65\H,20.82,16.43,23.49\O,2
 0.26,23.87,23.05\H,19.36,23.64,23.28\H,20.25,24.82,22.98\O,20.05,14.74
 ,22.24\H,20.32,15.17,21.43\H,19.1,14.76,22.22\O,14.9,18.97,18.09\H,15.
 07,19.32,18.97\H,14.68,19.74,17.57\O,22.17,20.28,15.23\H,22.48,19.42,1
 4.95\H,21.8,20.67,14.44\O,23.72,16.37,22.55\H,23.59,15.44,22.36\H,22.8
 8,16.67,22.9\O,14.78,21.41,16.74\H,15.53,21.57,17.31\H,15.06,21.71,15.
 88\O,24.32,21.18,24.5\H,24.28,21.94,25.08\H,23.92,21.48,23.69\O,19.13,
 17.94,25.38\H,18.9,17.52,26.22\H,19.44,18.81,25.63\O,16.16,24.32,20.73
 \H,15.65,24.53,19.94\H,15.84,24.94,21.39\O,19.79,14.71,17.4\H,20.39,14
 .09,17.81\H,20.28,15.03,16.64\O,18.1,25.96,19.32\H,18.66,26.36,19.99\H
 ,17.53,25.36,19.8\O,21.49,23.27,25.4\H,21.32,23.7,24.56\H,20.88,23.69,
 26.01\O,22.18,20.37,26.63\H,23.1,20.27,26.38\H,21.72,20.5,25.8\O,26.94
 ,20.2,21.23\H,27.03,19.3,20.93\H,26.,20.38,21.19\O,25.07,18.19,24.45\H
 ,24.88,17.44,23.89\H,24.53,18.9,24.1\O,25.42,15.91,18.7\H,24.91,16.21,
 19.46\H,25.51,16.68,18.14\O,15.11,15.31,20.9\H,15.53,15.77,21.63\H,15.
 61,15.58,20.13\O,18.41,19.46,13.07\H,17.51,19.34,12.79\H,18.34,19.73,1
 3.99\O,26.01,21.94,18.62\H,26.52,21.15,18.45\H,25.49,22.06,17.83\O,23.
 88,24.63,23.88\H,23.57,23.93,23.31\H,23.25,25.34,23.76\O,14.44,22.15,2
 2.62\H,14.89,22.88,22.2\H,13.52,22.25,22.35\O,24.99,22.6,16.26\H,24.06
 ,22.76,16.1\H,25.35,22.42,15.39\O,21.13,15.75,15.26\H,21.06,15.05,14.6
 1\H,20.83,16.53,14.81\O,26.,17.75,16.66\H,26.2,18.08,15.79\H,25.07,17.
 91,16.77\O,23.23,14.59,17.08\H,23.59,15.45,17.25\H,22.56,14.74,16.4\O,
 15.57,22.48,25.01\H,16.43,22.72,24.68\H,15.19,21.93,24.32\O,17.44,14.8
 9,23.18\H,17.06,14.05,23.42\H,17.61,15.33,24.01\O,15.68,24.36,15.87\H,
 15.6,25.31,15.86\H,16.48,24.2,16.38\O,18.7,23.85,26.28\H,18.7,23.08,25
 .71\H,18.19,23.58,27.05\O,17.9,14.58,15.41\H,17.13,15.1,15.63\H,18.55,
 14.82,16.07\O,15.28,18.91,14.55\H,15.57,18.36,15.28\H,15.64,19.78,14.7
 3\O,18.71,25.49,16.36\H,19.27,26.14,15.94\H,18.48,25.88,17.21\O,13.35,
 17.57,22.41\H,13.81,18.2,21.84\H,13.61,16.71,22.06\O,24.35,26.11,18.63
 \H,23.6,25.53,18.72\H,25.01,25.74,19.22\O,19.33,23.52,14.2\H,18.41,23.
 44,13.93\H,19.34,24.27,14.79\O,20.71,12.71,19.\H,21.25,13.31,19.52\H,2
 0.49,12.01,19.61\O,23.13,13.93,19.75\H,23.85,13.63,20.31\H,23.55,14.16
 ,18.92\O,13.65,16.46,17.86\H,14.02,17.35,17.91\H,12.91,16.48,18.46\O,1
 2.2,20.21,19.87\H,11.83,20.42,19.01\H,13.14,20.4,19.77\O,20.53,17.62,1
 3.14\H,20.4,17.43,12.21\H,19.81,18.22,13.36\O,23.07,17.93,13.94\H,23.6
 8,17.2,13.8\H,22.2,17.54,13.85\O,21.63,22.4,13.28\H,22.16,23.18,13.45\
 H,20.74,22.66,13.54\O,20.34,26.81,22.13\H,20.86,26.91,21.33\H,19.48,27
 .14,21.9\O,17.19,21.71,27.36\H,16.24,21.83,27.44\H,17.32,21.49,26.44\O
 ,21.09,14.25,24.78\H,20.79,14.03,23.89\H,21.64,13.5,25.03\O,18.89,26.0
 8,24.83\H,18.66,25.15,24.94\H,18.72,26.25,23.9\O,14.9,19.09,25.16\H,14
 .29,19.28,24.45\H,14.51,18.35,25.63\O,12.76,22.52,18.34\H,13.42,22.3,1
 7.69\H,12.71,23.48,18.33\O,26.62,23.28,21.5\H,26.97,22.58,20.95\H,26.8
 2,23.,22.4\O,27.46,19.92,18.13\H,27.29,18.98,18.2\H,27.89,20.02,17.28\
 O,20.87,27.87,19.28\H,21.57,27.47,18.77\H,20.67,28.68,18.82\O,17.6,12.
 28,17.7\H,17.54,11.67,18.43\H,18.45,12.7,17.8\O,27.55,20.36,23.79\H,27
 .53,20.14,22.86\H,26.64,20.54,24.02\O,27.39,17.23,21.89\H,27.2,16.31,2
 1.71\H,26.88,17.43,22.68\O,23.5,20.27,12.26\H,22.84,20.91,12.53\H,23.5
 6,19.66,12.99\O,26.04,25.62,20.87\H,26.3,24.7,20.84\H,25.3,25.64,21.47
 \O,22.45,26.98,23.69\H,22.98,27.76,23.59\H,21.76,27.06,23.03\O,14.5,25
 .62,19.17\H,14.88,26.49,19.2\H,14.24,25.5,18.26\O,14.99,25.41,22.88\H,
 14.99,26.35,23.05\H,14.12,25.12,23.17\O,21.66,18.16,28.27\H,21.95,18.7
 7,27.59\H,21.83,17.29,27.9\O,24.2,23.,26.51\H,23.47,22.94,27.12\H,23.9
 2,23.66,25.87\O,22.03,26.92,16.3\H,22.89,26.59,16.55\H,21.96,26.72,15.
 37\O,17.58,15.32,26.01\H,17.41,14.45,26.36\H,18.2,15.72,26.62\O,18.07,
 11.46,21.55\H,17.61,10.88,20.94\H,18.13,12.3,21.1\O,14.61,22.77,14.12\
 H,15.09,23.4,14.66\H,13.72,22.81,14.46\O,21.51,22.45,28.33\H,21.79,21.
 86,27.62\H,20.88,21.94,28.83\O,22.45,16.08,26.59\H,23.36,15.9,26.33\H,
 21.99,15.26,26.43\O,23.72,13.32,22.66\H,23.53,12.85,23.47\H,24.07,12.6
 5,22.07\O,25.05,18.44,27.18\H,24.54,18.09,26.45\H,25.16,17.7,27.77\O,1
 9.63,21.09,11.41\H,20.22,21.51,12.02\H,19.24,20.36,11.9\O,12.67,21.11,
 24.71\H,13.41,21.67,24.47\H,11.93,21.47,24.21\O,26.54,14.69,22.76\H,26
 .78,14.1,23.48\H,25.59,14.63,22.7\O,18.26,27.93,21.25\H,18.14,28.25,20
 .36\H,17.94,28.64,21.81\O,22.97,24.69,13.9\H,22.9,24.99,13.\H,23.69,25
 .22,14.27\O,28.26,23.85,19.06\H,27.47,23.36,18.81\H,28.98,23.37,18.65\
 O,11.82,22.28,22.1\H,12.,21.83,21.28\H,10.89,22.1,22.28\O,25.92,13.58,
 17.21\H,25.64,14.32,17.74\H,25.29,12.89,17.42\O,12.48,14.6,20.21\H,12.
 32,13.94,20.88\H,13.36,14.92,20.4\O,21.43,26.3,26.12\H,20.72,26.32,25.
 48\H,22.23,26.37,25.59\O,25.91,21.52,14.02\H,25.28,21.15,13.39\H,26.31
 ,20.76,14.43\O,24.77,15.04,25.45\H,25.46,14.38,25.53\H,24.,14.56,25.14
 \O,17.59,19.38,28.72\H,16.71,19.36,29.1\H,17.6,20.17,28.18\O,14.58,16.
 5,26.26\H,14.95,16.52,27.14\H,15.17,15.94,25.76\O,14.58,20.52,12.6\H,1
 4.69,19.86,13.28\H,14.43,21.34,13.08\O,16.88,23.29,12.73\H,16.87,22.68
 ,11.99\H,15.99,23.25,13.08\O,18.67,16.99,27.94\H,18.29,17.81,28.27\H,1
 9.17,16.64,28.67\O,16.54,16.2,12.38\H,16.34,17.03,12.81\H,15.78,16.03,
 11.83\O,22.73,12.04,15.51\H,23.68,12.19,15.44\H,22.43,12.73,16.09\O,12
 .08,25.02,20.55\H,11.74,24.14,20.41\H,12.98,24.98,20.24\O,14.62,12.55,
 20.35\H,14.41,12.14,21.19\H,14.4,13.47,20.47\O,11.72,20.26,15.81\H,11.
 51,19.59,15.16\H,12.02,19.77,16.57\O,23.82,15.34,13.71\H,24.33,15.17,1
 2.92\H,22.98,14.92,13.55\O,15.16,24.87,26.32\H,15.16,23.94,26.09\H,16.
 09,25.09,26.43\O,26.55,26.19,16.91\H,27.08,25.46,16.58\H,26.05,25.82,1
 7.63\O,27.97,23.71,16.07\H,28.87,23.41,16.16\H,27.45,23.05,16.54\O,13.
 12,14.08,16.76\H,13.31,14.99,16.96\H,13.71,13.57,17.32\O,23.64,28.73,1
 8.33\H,23.94,27.83,18.44\H,23.94,28.98,17.46\O,17.55,12.04,14.9\H,17.3
 4,11.89,15.82\H,17.88,12.94,14.88\O,10.25,18.62,21.4\H,11.13,18.83,21.
 1\H,9.78,19.45,21.37\O,24.95,25.88,26.34\H,25.66,26.33,25.87\H,24.68,2
 5.18,25.74\O,15.64,27.14,16.57\H,15.41,27.63,17.36\H,15.11,27.54,15.87
 \O,16.62,12.51,23.79\H,17.34,12.17,24.33\H,16.75,12.08,22.94\O,26.61,1
 8.85,13.92\H,27.03,19.4,13.26\H,26.82,17.96,13.64\O,27.5,18.14,26.02\H
 ,26.81,18.71,26.34\H,27.09,17.63,25.31\\Version=ES64L-G09RevE.01\HF=-9
 773.3698849\RMSD=1.403e-09\RMSF=1.060e-02\Dipole=-5.8829606,0.6217365,
 -5.6702003\Quadrupole=-251.2540913,486.2133968,-234.9593055,-1868.8671
 737,-2033.1550159,-1860.4279704\PG=C01 [X(Br1H256O128)]\\@


 Happiness is a conscious choice, not an automatic response.
 -- Mildred Barthel
 Job cpu time:       6 days 22 hours 17 minutes 12.6 seconds.
 File lengths (MBytes):  RWF=   7285 Int=      0 D2E=      0 Chk=   2411 Scr=      1
 Normal termination of Gaussian 09 at Sun May  6 00:45:40 2018.
