 Entering Gaussian System, Link 0=/cm/shared/gaussian/g09.e01/intel64-sandybridge/g09/g09
 Initial command:
 /cm/shared/gaussian/g09.e01/intel64-sandybridge/g09/l1.exe "/local/scratch/m.peluso/128_wat/Gau-6806.inp" -scrdir="/local/scratch/m.peluso/128_wat/"
 Entering Link 1 = /cm/shared/gaussian/g09.e01/intel64-sandybridge/g09/l1.exe PID=      6807.
  
 Copyright (c) 1988,1990,1992,1993,1995,1998,2003,2009,2015,
            Gaussian, Inc.  All Rights Reserved.
  
 This is part of the Gaussian(R) 09 program.  It is based on
 the Gaussian(R) 03 system (copyright 2003, Gaussian, Inc.),
 the Gaussian(R) 98 system (copyright 1998, Gaussian, Inc.),
 the Gaussian(R) 94 system (copyright 1995, Gaussian, Inc.),
 the Gaussian 92(TM) system (copyright 1992, Gaussian, Inc.),
 the Gaussian 90(TM) system (copyright 1990, Gaussian, Inc.),
 the Gaussian 88(TM) system (copyright 1988, Gaussian, Inc.),
 the Gaussian 86(TM) system (copyright 1986, Carnegie Mellon
 University), and the Gaussian 82(TM) system (copyright 1983,
 Carnegie Mellon University). Gaussian is a federally registered
 trademark of Gaussian, Inc.
  
 This software contains proprietary and confidential information,
 including trade secrets, belonging to Gaussian, Inc.
  
 This software is provided under written license and may be
 used, copied, transmitted, or stored only in accord with that
 written license.
  
 The following legend is applicable only to US Government
 contracts under FAR:
  
                    RESTRICTED RIGHTS LEGEND
  
 Use, reproduction and disclosure by the US Government is
 subject to restrictions as set forth in subparagraphs (a)
 and (c) of the Commercial Computer Software - Restricted
 Rights clause in FAR 52.227-19.
  
 Gaussian, Inc.
 340 Quinnipiac St., Bldg. 40, Wallingford CT 06492
  
  
 ---------------------------------------------------------------
 Warning -- This program may not be used in any manner that
 competes with the business of Gaussian, Inc. or will provide
 assistance to any competitor of Gaussian, Inc.  The licensee
 of this program is prohibited from giving any competitor of
 Gaussian, Inc. access to this program.  By using this program,
 the user acknowledges that Gaussian, Inc. is engaged in the
 business of creating and licensing software in the field of
 computational chemistry and represents and warrants to the
 licensee that it is not a competitor of Gaussian, Inc. and that
 it will not use this program in any manner prohibited above.
 ---------------------------------------------------------------
  

 Cite this work as:
 Gaussian 09, Revision E.01,
 M. J. Frisch, G. W. Trucks, H. B. Schlegel, G. E. Scuseria, 
 M. A. Robb, J. R. Cheeseman, G. Scalmani, V. Barone, B. Mennucci, 
 G. A. Petersson, H. Nakatsuji, M. Caricato, X. Li, H. P. Hratchian, 
 A. F. Izmaylov, J. Bloino, G. Zheng, J. L. Sonnenberg, M. Hada, 
 M. Ehara, K. Toyota, R. Fukuda, J. Hasegawa, M. Ishida, T. Nakajima, 
 Y. Honda, O. Kitao, H. Nakai, T. Vreven, J. A. Montgomery, Jr., 
 J. E. Peralta, F. Ogliaro, M. Bearpark, J. J. Heyd, E. Brothers, 
 K. N. Kudin, V. N. Staroverov, T. Keith, R. Kobayashi, J. Normand, 
 K. Raghavachari, A. Rendell, J. C. Burant, S. S. Iyengar, J. Tomasi, 
 M. Cossi, N. Rega, J. M. Millam, M. Klene, J. E. Knox, J. B. Cross, 
 V. Bakken, C. Adamo, J. Jaramillo, R. Gomperts, R. E. Stratmann, 
 O. Yazyev, A. J. Austin, R. Cammi, C. Pomelli, J. W. Ochterski, 
 R. L. Martin, K. Morokuma, V. G. Zakrzewski, G. A. Voth, 
 P. Salvador, J. J. Dannenberg, S. Dapprich, A. D. Daniels, 
 O. Farkas, J. B. Foresman, J. V. Ortiz, J. Cioslowski, 
 and D. J. Fox, Gaussian, Inc., Wallingford CT, 2013.
 
 ******************************************
 Gaussian 09:  ES64L-G09RevE.01 30-Nov-2015
                15-May-2018 
 ******************************************
 %Mem=110GB
 %NProcShared=64
 Will use up to   64 processors via shared memory.
 %chk=snap52.chk
 ----------------------------------------------
 #p PBE1PBE/cc-pvDZ force Counterpoise=2 noSymm
 ----------------------------------------------
 1/10=7,30=1,38=1,62=2/1,3;
 2/12=2,15=1,17=6,18=5,40=1/2;
 1/10=7,30=1,38=1,53=2,62=2,63=101/22;
 3/5=16,11=2,16=1,25=1,30=1,71=1,74=-13/1,2,3;
 4//1;
 5/5=2,38=5/2;
 6/7=2,8=2,9=2,10=2,28=1/1;
 7/7=1,29=1,30=1,33=-1/1,2,3,16;
 1/10=7,30=1,53=2,62=2,63=101/22;
 3/5=7,6=11,11=2,16=1,25=1,30=1,71=1,74=-13,82=7/1,2,3;
 4//1;
 5/5=2,38=5/2;
 6/7=2,8=2,9=2,10=2,28=1/1;
 7/7=1,29=1,30=1,33=-1/1,2,3,16;
 1/10=7,30=1,53=2,62=2,63=101/22(-5);
 7/9=1,29=1,44=-1/16;
 1/10=7,30=1,62=2/3;
 99//99;
 Leave Link    1 at Tue May 15 01:49:05 2018, MaxMem= 14763950080 cpu:        11.1
 (Enter /cm/shared/gaussian/g09.e01/intel64-sandybridge/g09/l101.exe)
 ---------------------------------------
 forces on chloride comput - NWATER: 128
 ---------------------------------------
 Symbolic Z-matrix:
 Charge = -1 Multiplicity = 1 in supermolecule
 Charge = -1 Multiplicity = 1 in fragment      1.
 Charge =  0 Multiplicity = 1 in fragment      2.
 Br(Fragment=1)        20.       20.       20. 
 O(Fragment=2)         22.97     21.27     19.44 
 H(Fragment=2)         22.09     21.       19.67 
 H(Fragment=2)         22.91     22.21     19.3 
 O(Fragment=2)         16.78     20.1      20.8 
 H(Fragment=2)         17.73     20.2      20.89 
 H(Fragment=2)         16.44     20.99     20.87 
 O(Fragment=2)         20.05     23.03     21.53 
 H(Fragment=2)         20.02     22.12     21.23 
 H(Fragment=2)         20.98     23.19     21.7 
 O(Fragment=2)         21.08     18.37     17.26 
 H(Fragment=2)         20.76     19.07     17.84 
 H(Fragment=2)         20.29     18.03     16.84 
 O(Fragment=2)         20.8      18.74     23.01 
 H(Fragment=2)         20.29     18.9      22.21 
 H(Fragment=2)         20.42     19.32     23.66 
 O(Fragment=2)         18.21     21.86     17.51 
 H(Fragment=2)         18.51     21.2      18.13 
 H(Fragment=2)         17.5      22.32     17.98 
 O(Fragment=2)         16.84     18.01     19.03 
 H(Fragment=2)         17.02     18.85     19.45 
 H(Fragment=2)         16.16     18.2      18.38 
 O(Fragment=2)         18.57     17.36     17. 
 H(Fragment=2)         18.5      17.75     17.87 
 H(Fragment=2)         17.73     16.93     16.86 
 O(Fragment=2)         22.83     17.4      21.65 
 H(Fragment=2)         21.93     17.69     21.77 
 H(Fragment=2)         23.2      17.4      22.53 
 O(Fragment=2)         21.81     16.03     19.41 
 H(Fragment=2)         22.39     16.73     19.72 
 H(Fragment=2)         20.93     16.37     19.56 
 O(Fragment=2)         23.07     22.13     22.12 
 H(Fragment=2)         23.22     21.85     21.21 
 H(Fragment=2)         23.46     21.44     22.65 
 O(Fragment=2)         18.53     21.97     23.67 
 H(Fragment=2)         18.87     22.48     22.94 
 H(Fragment=2)         18.89     22.4      24.45 
 O(Fragment=2)         24.45     18.92     19.6 
 H(Fragment=2)         24.04     19.78     19.53 
 H(Fragment=2)         23.82     18.4      20.11 
 O(Fragment=2)         17.81     15.66     20.08 
 H(Fragment=2)         17.7      16.59     19.86 
 H(Fragment=2)         17.64     15.21     19.26 
 O(Fragment=2)         20.51     23.09     16.08 
 H(Fragment=2)         19.98     22.43     16.54 
 H(Fragment=2)         20.31     22.95     15.16 
 O(Fragment=2)         17.08     23.87     20.13 
 H(Fragment=2)         18.02     23.9      19.97 
 H(Fragment=2)         16.86     24.75     20.44 
 O(Fragment=2)         17.86     20.59     14.98 
 H(Fragment=2)         18.21     20.94     15.79 
 H(Fragment=2)         17.53     19.72     15.21 
 O(Fragment=2)         19.7      16.33     24.12 
 H(Fragment=2)         20.27     16.22     24.88 
 H(Fragment=2)         20.02     17.12     23.69 
 O(Fragment=2)         23.55     17.65     16.41 
 H(Fragment=2)         22.75     18.11     16.66 
 H(Fragment=2)         23.67     16.99     17.1 
 O(Fragment=2)         22.17     24.03     18.02 
 H(Fragment=2)         21.64     23.64     17.32 
 H(Fragment=2)         21.62     24.73     18.37 
 O(Fragment=2)         23.6      21.92     16.24 
 H(Fragment=2)         24.09     21.14     16.48 
 H(Fragment=2)         23.14     22.17     17.04 
 O(Fragment=2)         14.48     18.97     21.77 
 H(Fragment=2)         14.59     18.17     22.28 
 H(Fragment=2)         15.31     19.06     21.3 
 O(Fragment=2)         19.22     14.59     21.89 
 H(Fragment=2)         18.69     15.11     21.28 
 H(Fragment=2)         19.35     15.16     22.65 
 O(Fragment=2)         15.62     22.51     23.09 
 H(Fragment=2)         16.46     22.11     23.3 
 H(Fragment=2)         15.1      22.41     23.88 
 O(Fragment=2)         19.34     19.55     25.37 
 H(Fragment=2)         19.34     19.38     26.32 
 H(Fragment=2)         18.45     19.34     25.09 
 O(Fragment=2)         20.06     15.6      15.59 
 H(Fragment=2)         19.7      16.3      16.13 
 H(Fragment=2)         19.3      15.08     15.34 
 O(Fragment=2)         16.96     16.05     23.15 
 H(Fragment=2)         17.89     16.07     23.39 
 H(Fragment=2)         16.96     15.89     22.21 
 O(Fragment=2)         14.58     22.91     20.63 
 H(Fragment=2)         15.04     22.67     21.43 
 H(Fragment=2)         15.19     23.5      20.18 
 O(Fragment=2)         21.47     14.       17.49 
 H(Fragment=2)         21.25     14.35     16.63 
 H(Fragment=2)         21.63     14.77     18.03 
 O(Fragment=2)         22.9      19.66     26.12 
 H(Fragment=2)         23.59     20.32     26.18 
 H(Fragment=2)         22.42     19.87     25.32 
 O(Fragment=2)         25.17     19.76     16.93 
 H(Fragment=2)         24.64     19.07     16.54 
 H(Fragment=2)         25.4      19.44     17.79 
 O(Fragment=2)         14.87     18.88     17.35 
 H(Fragment=2)         14.43     18.36     16.67 
 H(Fragment=2)         14.16     19.31     17.82 
 O(Fragment=2)         20.18     22.18     26.11 
 H(Fragment=2)         20.28     22.09     27.06 
 H(Fragment=2)         19.97     21.29     25.81 
 O(Fragment=2)         24.73     20.34     23.6 
 H(Fragment=2)         25.16     19.8      24.26 
 H(Fragment=2)         25.44     20.6      23.01 
 O(Fragment=2)         25.04     23.89     22.76 
 H(Fragment=2)         25.77     23.84     22.14 
 H(Fragment=2)         24.43     23.22     22.46 
 O(Fragment=2)         19.99     25.94     18.56 
 H(Fragment=2)         19.26     25.91     17.95 
 H(Fragment=2)         19.58     26.03     19.42 
 O(Fragment=2)         26.43     17.1      19.22 
 H(Fragment=2)         25.64     17.58     19.46 
 H(Fragment=2)         26.11     16.24     18.93 
 O(Fragment=2)         15.81     23.27     16.88 
 H(Fragment=2)         15.39     22.68     16.25 
 H(Fragment=2)         15.23     23.27     17.64 
 O(Fragment=2)         18.59     26.32     20.73 
 H(Fragment=2)         18.6      27.23     21.02 
 H(Fragment=2)         18.6      25.81     21.53 
 O(Fragment=2)         16.96     24.62     24.15 
 H(Fragment=2)         16.86     23.69     23.96 
 H(Fragment=2)         16.31     25.06     23.6 
 O(Fragment=2)         13.17     20.1      19.23 
 H(Fragment=2)         13.75     20.78     19.56 
 H(Fragment=2)         12.63     19.86     19.98 
 O(Fragment=2)         22.88     23.24     25.32 
 H(Fragment=2)         22.09     22.69     25.32 
 H(Fragment=2)         22.61     24.04     24.86 
 O(Fragment=2)         13.56     16.78     19.73 
 H(Fragment=2)         12.85     17.3      20.09 
 H(Fragment=2)         14.25     17.42     19.53 
 O(Fragment=2)         17.25     25.53     17.14 
 H(Fragment=2)         16.96     25.51     18.05 
 H(Fragment=2)         16.99     24.68     16.79 
 O(Fragment=2)         22.33     17.95     13.63 
 H(Fragment=2)         23.11     18.02     13.08 
 H(Fragment=2)         22.67     17.84     14.52 
 O(Fragment=2)         26.78     20.4      21.64 
 H(Fragment=2)         27.73     20.29     21.67 
 H(Fragment=2)         26.52     20.03     20.8 
 O(Fragment=2)         14.71     17.15     23.86 
 H(Fragment=2)         14.85     17.91     24.43 
 H(Fragment=2)         15.59     16.8      23.71 
 O(Fragment=2)         23.92     13.63     19.98 
 H(Fragment=2)         23.13     14.17     20.02 
 H(Fragment=2)         24.37     13.8      20.81 
 O(Fragment=2)         24.44     15.49     17.81 
 H(Fragment=2)         24.8      14.84     17.21 
 H(Fragment=2)         24.14     14.97     18.57 
 O(Fragment=2)         24.54     16.33     23.73 
 H(Fragment=2)         25.45     16.15     23.95 
 H(Fragment=2)         24.38     15.83     22.93 
 O(Fragment=2)         16.81     14.5      17.79 
 H(Fragment=2)         15.92     14.78     17.56 
 H(Fragment=2)         16.83     13.57     17.57 
 O(Fragment=2)         22.25     26.35     16.41 
 H(Fragment=2)         21.36     26.31     16.05 
 H(Fragment=2)         22.37     25.5      16.84 
 O(Fragment=2)         15.01     21.48     15.02 
 H(Fragment=2)         15.86     21.14     14.76 
 H(Fragment=2)         14.41     20.75     14.91 
 O(Fragment=2)         24.34     20.17     13.69 
 H(Fragment=2)         24.5      20.97     13.2 
 H(Fragment=2)         23.98     20.47     14.53 
 O(Fragment=2)         19.26     26.18     23.32 
 H(Fragment=2)         18.67     25.61     23.81 
 H(Fragment=2)         18.92     27.06     23.48 
 O(Fragment=2)         17.05     12.88     20.44 
 H(Fragment=2)         16.21     13.34     20.49 
 H(Fragment=2)         17.69     13.53     20.75 
 O(Fragment=2)         21.73     25.59     24.29 
 H(Fragment=2)         22.21     26.01     23.58 
 H(Fragment=2)         20.82     25.58     24. 
 O(Fragment=2)         19.94     23.22     13.42 
 H(Fragment=2)         19.92     23.43     12.49 
 H(Fragment=2)         19.07     23.43     13.74 
 O(Fragment=2)         18.41     20.25     12.01 
 H(Fragment=2)         18.45     20.17     12.97 
 H(Fragment=2)         17.9      21.05     11.87 
 O(Fragment=2)         23.32     16.98     26.02 
 H(Fragment=2)         23.81     16.82     25.22 
 H(Fragment=2)         23.29     17.94     26.1 
 O(Fragment=2)         17.65     24.53     13.97 
 H(Fragment=2)         16.98     24.92     13.42 
 H(Fragment=2)         17.18     24.25     14.76 
 O(Fragment=2)         20.92     12.36     22.94 
 H(Fragment=2)         20.64     13.11     22.41 
 H(Fragment=2)         21.86     12.51     23.06 
 O(Fragment=2)         24.69     23.76     14.2 
 H(Fragment=2)         24.14     23.54     13.45 
 H(Fragment=2)         24.2      23.43     14.96 
 O(Fragment=2)         19.7      12.1      18.23 
 H(Fragment=2)         19.5      12.26     19.15 
 H(Fragment=2)         20.14     12.89     17.94 
 O(Fragment=2)         19.67     24.94     26.34 
 H(Fragment=2)         18.75     24.76     26.54 
 H(Fragment=2)         20.06     24.08     26.23 
 O(Fragment=2)         14.83     14.29     20.72 
 H(Fragment=2)         14.34     14.28     21.55 
 H(Fragment=2)         14.43     15.       20.22 
 O(Fragment=2)         28.01     19.19     18.58 
 H(Fragment=2)         28.75     18.67     18.28 
 H(Fragment=2)         27.27     18.59     18.57 
 O(Fragment=2)         25.71     25.75     19.52 
 H(Fragment=2)         25.15     25.53     20.26 
 H(Fragment=2)         25.15     26.26     18.93 
 O(Fragment=2)         21.       16.06     26.61 
 H(Fragment=2)         21.22     15.17     26.9 
 H(Fragment=2)         21.85     16.46     26.43 
 O(Fragment=2)         19.93     28.57     19.82 
 H(Fragment=2)         20.1      27.63     19.75 
 H(Fragment=2)         19.76     28.85     18.91 
 O(Fragment=2)         27.32     20.18     15.51 
 H(Fragment=2)         27.78     20.85     16.01 
 H(Fragment=2)         26.44     20.15     15.89 
 O(Fragment=2)         27.88     17.27     21.6 
 H(Fragment=2)         27.17     17.38     20.98 
 H(Fragment=2)         28.07     18.16     21.91 
 O(Fragment=2)         21.14     19.9      11.98 
 H(Fragment=2)         20.28     20.19     12.3 
 H(Fragment=2)         21.23     19.       12.3 
 O(Fragment=2)         15.46     15.47     15.21 
 H(Fragment=2)         15.38     14.55     15.43 
 H(Fragment=2)         16.35     15.56     14.86 
 O(Fragment=2)         15.76     26.07     22.21 
 H(Fragment=2)         15.56     26.18     21.28 
 H(Fragment=2)         15.49     26.89     22.61 
 O(Fragment=2)         12.15     22.88     22.23 
 H(Fragment=2)         13.01     22.89     21.79 
 H(Fragment=2)         11.58     22.4      21.63 
 O(Fragment=2)         23.19     26.82     21.99 
 H(Fragment=2)         24.04     27.25     21.92 
 H(Fragment=2)         22.57     27.48     21.68 
 O(Fragment=2)         25.04     21.96     26.59 
 H(Fragment=2)         24.31     22.36     26.11 
 H(Fragment=2)         25.82     22.24     26.11 
 O(Fragment=2)         15.46     20.05     26.49 
 H(Fragment=2)         15.74     20.3      27.37 
 H(Fragment=2)         15.5      19.1      26.49 
 O(Fragment=2)         15.9      17.15     26.67 
 H(Fragment=2)         15.59     16.66     27.43 
 H(Fragment=2)         16.73     16.74     26.44 
 O(Fragment=2)         13.41     17.27     15.76 
 H(Fragment=2)         12.86     16.52     15.97 
 H(Fragment=2)         14.25     16.89     15.51 
 O(Fragment=2)         26.84     22.79     24.7 
 H(Fragment=2)         26.38     22.89     23.87 
 H(Fragment=2)         27.01     23.69     24.98 
 O(Fragment=2)         27.18     24.01     21. 
 H(Fragment=2)         26.78     24.32     20.19 
 H(Fragment=2)         27.75     24.73     21.28 
 O(Fragment=2)         22.38     24.05     12.72 
 H(Fragment=2)         21.52     23.78     13.06 
 H(Fragment=2)         22.18     24.76     12.1 
 O(Fragment=2)         17.6      21.06     28.52 
 H(Fragment=2)         18.24     20.62     29.08 
 H(Fragment=2)         18.08     21.26     27.72 
 O(Fragment=2)         19.64     18.98     27.99 
 H(Fragment=2)         19.26     18.96     28.87 
 H(Fragment=2)         20.58     18.87     28.12 
 O(Fragment=2)         13.76     21.91     25.43 
 H(Fragment=2)         14.14     21.03     25.49 
 H(Fragment=2)         12.81     21.76     25.41 
 O(Fragment=2)         24.68     25.74     25.07 
 H(Fragment=2)         23.91     25.64     25.64 
 H(Fragment=2)         24.55     25.08     24.39 
 O(Fragment=2)         21.44     15.24     12.83 
 H(Fragment=2)         20.86     14.98     13.54 
 H(Fragment=2)         21.85     16.05     13.14 
 O(Fragment=2)         28.41     21.98     19.13 
 H(Fragment=2)         28.61     21.06     19.26 
 H(Fragment=2)         27.83     22.2      19.86 
 O(Fragment=2)         20.03     26.35     14.52 
 H(Fragment=2)         19.23     25.84     14.38 
 H(Fragment=2)         19.85     27.2      14.12 
 O(Fragment=2)         17.92     14.18     14.66 
 H(Fragment=2)         17.96     13.32     15.08 
 H(Fragment=2)         17.84     13.99     13.73 
 O(Fragment=2)         14.53     26.11     19.71 
 H(Fragment=2)         13.79     26.15     20.3 
 H(Fragment=2)         14.32     26.72     19.01 
 O(Fragment=2)         18.49     16.36     27.45 
 H(Fragment=2)         18.88     16.88     28.15 
 H(Fragment=2)         19.21     15.85     27.09 
 O(Fragment=2)         24.76     13.69     22.38 
 H(Fragment=2)         24.58     12.97     22.99 
 H(Fragment=2)         25.53     13.4      21.89 
 O(Fragment=2)         24.57     15.82     13.66 
 H(Fragment=2)         25.03     16.6      13.37 
 H(Fragment=2)         24.67     15.82     14.61 
 O(Fragment=2)         24.72     26.84     17.33 
 H(Fragment=2)         23.8      26.81     17.07 
 H(Fragment=2)         25.11     26.08     16.9 
 O(Fragment=2)         13.56     19.45     14.05 
 H(Fragment=2)         13.57     18.75     14.69 
 H(Fragment=2)         12.93     19.18     13.39 
 O(Fragment=2)         22.81     12.32     15.45 
 H(Fragment=2)         23.7      12.64     15.59 
 H(Fragment=2)         22.25     13.       15.81 
 O(Fragment=2)         13.37     24.27     24.46 
 H(Fragment=2)         13.41     23.96     23.56 
 H(Fragment=2)         13.31     23.47     24.99 
 O(Fragment=2)         26.43     18.92     25.43 
 H(Fragment=2)         27.26     19.37     25.6 
 H(Fragment=2)         26.69     18.03     25.16 
 O(Fragment=2)         24.52     14.04     25.43 
 H(Fragment=2)         24.22     13.23     25.01 
 H(Fragment=2)         23.77     14.63     25.39 
 O(Fragment=2)         22.67     25.51     27.13 
 H(Fragment=2)         22.05     26.05     27.62 
 H(Fragment=2)         22.15     25.13     26.42 
 O(Fragment=2)         14.88     14.11     25.18 
 H(Fragment=2)         14.41     13.68     24.47 
 H(Fragment=2)         15.08     14.99     24.84 
 O(Fragment=2)         18.31     11.62     23.14 
 H(Fragment=2)         19.05     11.94     22.63 
 H(Fragment=2)         17.72     11.23     22.49 
 O(Fragment=2)         25.86     18.05     13.26 
 H(Fragment=2)         25.23     18.76     13.35 
 H(Fragment=2)         26.71     18.47     13.39 
 O(Fragment=2)         10.77     20.02     21.5 
 H(Fragment=2)         11.58     19.8      21.96 
 H(Fragment=2)         10.07     19.85     22.14 
 O(Fragment=2)         11.96     14.76     18.87 
 H(Fragment=2)         11.22     14.93     19.44 
 H(Fragment=2)         12.59     15.46     19.06 
 O(Fragment=2)         23.28     21.6      11.54 
 H(Fragment=2)         23.08     22.52     11.69 
 H(Fragment=2)         22.46     21.14     11.69 
 O(Fragment=2)         17.46     13.23     25.5 
 H(Fragment=2)         16.74     13.83     25.28 
 H(Fragment=2)         17.56     12.68     24.72 
 O(Fragment=2)         28.05     23.05     16.76 
 H(Fragment=2)         28.       22.72     17.66 
 H(Fragment=2)         27.29     23.63     16.67 
 O(Fragment=2)         16.52     28.19     16.12 
 H(Fragment=2)         16.56     27.24     16.26 
 H(Fragment=2)         16.57     28.3      15.17 
 O(Fragment=2)         26.34     25.1      15.85 
 H(Fragment=2)         26.83     25.74     15.33 
 H(Fragment=2)         25.92     24.54     15.19 
 O(Fragment=2)         12.11     16.17     24.46 
 H(Fragment=2)         12.36     16.12     25.38 
 H(Fragment=2)         12.91     16.46     24.02 
 O(Fragment=2)         20.29     27.87     25.69 
 H(Fragment=2)         20.12     26.94     25.56 
 H(Fragment=2)         21.06     28.05     25.15 
 O(Fragment=2)         14.21     23.14     13.05 
 H(Fragment=2)         14.33     22.34     12.53 
 H(Fragment=2)         14.11     22.82     13.95 
 O(Fragment=2)         18.08     11.76     16.01 
 H(Fragment=2)         18.55     11.79     16.85 
 H(Fragment=2)         18.55     11.09     15.5 
 O(Fragment=2)         17.11     24.44     27.46 
 H(Fragment=2)         16.6      24.84     26.76 
 H(Fragment=2)         16.69     23.59     27.61 
 O(Fragment=2)         20.71     22.56     28.64 
 H(Fragment=2)         21.39     22.85     29.25 
 H(Fragment=2)         19.94     23.09     28.87 
 O(Fragment=2)         28.62     14.99     19.6 
 H(Fragment=2)         28.18     15.84     19.68 
 H(Fragment=2)         29.54     15.18     19.79 
 O(Fragment=2)         14.57     22.69     27.81 
 H(Fragment=2)         14.2      23.54     28.06 
 H(Fragment=2)         14.49     22.66     26.86 
 O(Fragment=2)         25.03     12.89     16.76 
 H(Fragment=2)         25.97     13.05     16.88 
 H(Fragment=2)         24.97     11.95     16.6 
 O(Fragment=2)         24.15     10.63     18.85 
 H(Fragment=2)         23.82     11.51     19. 
 H(Fragment=2)         24.18     10.55     17.9 
 O(Fragment=2)         15.07     12.93     16.29 
 H(Fragment=2)         14.21     12.77     16.68 
 H(Fragment=2)         15.51     12.08     16.31 
 O(Fragment=2)         16.96     10.39     18.73 
 H(Fragment=2)         17.14     11.07     19.38 
 H(Fragment=2)         17.82     10.03     18.51 
 O(Fragment=2)         24.53     26.73     13.99 
 H(Fragment=2)         24.6      25.79     14.18 
 H(Fragment=2)         24.46     27.14     14.85 
 O(Fragment=2)         15.45     26.25     25.95 
 H(Fragment=2)         14.83     25.73     25.43 
 H(Fragment=2)         14.9      26.8      26.5 
 O(Fragment=2)         17.78     28.49     23.52 
 H(Fragment=2)         17.58     28.27     24.43 
 H(Fragment=2)         18.08     29.4      23.55 
 
 NAtoms=    385 NQM=      385 NQMF=       0 NMMI=      0 NMMIF=      0
                NMic=       0 NMicF=      0.
                    Isotopes and Nuclear Properties:
 (Nuclear quadrupole moments (NQMom) in fm**2, nuclear magnetic moments (NMagM)
  in nuclear magnetons)

  Atom         1           2           3           4           5           6           7           8           9          10
 IAtWgt=          79          16           1           1          16           1           1          16           1           1
 AtmWgt=  78.9183361  15.9949146   1.0078250   1.0078250  15.9949146   1.0078250   1.0078250  15.9949146   1.0078250   1.0078250
 NucSpn=           3           0           1           1           0           1           1           0           1           1
 AtZEff=   0.0000000   0.0000000   0.0000000   0.0000000   0.0000000   0.0000000   0.0000000   0.0000000   0.0000000   0.0000000
 NQMom=   31.3000000   0.0000000   0.0000000   0.0000000   0.0000000   0.0000000   0.0000000   0.0000000   0.0000000   0.0000000
 NMagM=    2.1063990   0.0000000   2.7928460   2.7928460   0.0000000   2.7928460   2.7928460   0.0000000   2.7928460   2.7928460
 AtZNuc=  35.0000000   8.0000000   1.0000000   1.0000000   8.0000000   1.0000000   1.0000000   8.0000000   1.0000000   1.0000000

  Atom        11          12          13          14          15          16          17          18          19          20
 IAtWgt=          16           1           1          16           1           1          16           1           1          16
 AtmWgt=  15.9949146   1.0078250   1.0078250  15.9949146   1.0078250   1.0078250  15.9949146   1.0078250   1.0078250  15.9949146
 NucSpn=           0           1           1           0           1           1           0           1           1           0
 AtZEff=   0.0000000   0.0000000   0.0000000   0.0000000   0.0000000   0.0000000   0.0000000   0.0000000   0.0000000   0.0000000
 NQMom=    0.0000000   0.0000000   0.0000000   0.0000000   0.0000000   0.0000000   0.0000000   0.0000000   0.0000000   0.0000000
 NMagM=    0.0000000   2.7928460   2.7928460   0.0000000   2.7928460   2.7928460   0.0000000   2.7928460   2.7928460   0.0000000
 AtZNuc=   8.0000000   1.0000000   1.0000000   8.0000000   1.0000000   1.0000000   8.0000000   1.0000000   1.0000000   8.0000000

  Atom        21          22          23          24          25          26          27          28          29          30
 IAtWgt=           1           1          16           1           1          16           1           1          16           1
 AtmWgt=   1.0078250   1.0078250  15.9949146   1.0078250   1.0078250  15.9949146   1.0078250   1.0078250  15.9949146   1.0078250
 NucSpn=           1           1           0           1           1           0           1           1           0           1
 AtZEff=   0.0000000   0.0000000   0.0000000   0.0000000   0.0000000   0.0000000   0.0000000   0.0000000   0.0000000   0.0000000
 NQMom=    0.0000000   0.0000000   0.0000000   0.0000000   0.0000000   0.0000000   0.0000000   0.0000000   0.0000000   0.0000000
 NMagM=    2.7928460   2.7928460   0.0000000   2.7928460   2.7928460   0.0000000   2.7928460   2.7928460   0.0000000   2.7928460
 AtZNuc=   1.0000000   1.0000000   8.0000000   1.0000000   1.0000000   8.0000000   1.0000000   1.0000000   8.0000000   1.0000000

  Atom        31          32          33          34          35          36          37          38          39          40
 IAtWgt=           1          16           1           1          16           1           1          16           1           1
 AtmWgt=   1.0078250  15.9949146   1.0078250   1.0078250  15.9949146   1.0078250   1.0078250  15.9949146   1.0078250   1.0078250
 NucSpn=           1           0           1           1           0           1           1           0           1           1
 AtZEff=   0.0000000   0.0000000   0.0000000   0.0000000   0.0000000   0.0000000   0.0000000   0.0000000   0.0000000   0.0000000
 NQMom=    0.0000000   0.0000000   0.0000000   0.0000000   0.0000000   0.0000000   0.0000000   0.0000000   0.0000000   0.0000000
 NMagM=    2.7928460   0.0000000   2.7928460   2.7928460   0.0000000   2.7928460   2.7928460   0.0000000   2.7928460   2.7928460
 AtZNuc=   1.0000000   8.0000000   1.0000000   1.0000000   8.0000000   1.0000000   1.0000000   8.0000000   1.0000000   1.0000000

  Atom        41          42          43          44          45          46          47          48          49          50
 IAtWgt=          16           1           1          16           1           1          16           1           1          16
 AtmWgt=  15.9949146   1.0078250   1.0078250  15.9949146   1.0078250   1.0078250  15.9949146   1.0078250   1.0078250  15.9949146
 NucSpn=           0           1           1           0           1           1           0           1           1           0
 AtZEff=   0.0000000   0.0000000   0.0000000   0.0000000   0.0000000   0.0000000   0.0000000   0.0000000   0.0000000   0.0000000
 NQMom=    0.0000000   0.0000000   0.0000000   0.0000000   0.0000000   0.0000000   0.0000000   0.0000000   0.0000000   0.0000000
 NMagM=    0.0000000   2.7928460   2.7928460   0.0000000   2.7928460   2.7928460   0.0000000   2.7928460   2.7928460   0.0000000
 AtZNuc=   8.0000000   1.0000000   1.0000000   8.0000000   1.0000000   1.0000000   8.0000000   1.0000000   1.0000000   8.0000000

  Atom        51          52          53          54          55          56          57          58          59          60
 IAtWgt=           1           1          16           1           1          16           1           1          16           1
 AtmWgt=   1.0078250   1.0078250  15.9949146   1.0078250   1.0078250  15.9949146   1.0078250   1.0078250  15.9949146   1.0078250
 NucSpn=           1           1           0           1           1           0           1           1           0           1
 AtZEff=   0.0000000   0.0000000   0.0000000   0.0000000   0.0000000   0.0000000   0.0000000   0.0000000   0.0000000   0.0000000
 NQMom=    0.0000000   0.0000000   0.0000000   0.0000000   0.0000000   0.0000000   0.0000000   0.0000000   0.0000000   0.0000000
 NMagM=    2.7928460   2.7928460   0.0000000   2.7928460   2.7928460   0.0000000   2.7928460   2.7928460   0.0000000   2.7928460
 AtZNuc=   1.0000000   1.0000000   8.0000000   1.0000000   1.0000000   8.0000000   1.0000000   1.0000000   8.0000000   1.0000000

  Atom        61          62          63          64          65          66          67          68          69          70
 IAtWgt=           1          16           1           1          16           1           1          16           1           1
 AtmWgt=   1.0078250  15.9949146   1.0078250   1.0078250  15.9949146   1.0078250   1.0078250  15.9949146   1.0078250   1.0078250
 NucSpn=           1           0           1           1           0           1           1           0           1           1
 AtZEff=   0.0000000   0.0000000   0.0000000   0.0000000   0.0000000   0.0000000   0.0000000   0.0000000   0.0000000   0.0000000
 NQMom=    0.0000000   0.0000000   0.0000000   0.0000000   0.0000000   0.0000000   0.0000000   0.0000000   0.0000000   0.0000000
 NMagM=    2.7928460   0.0000000   2.7928460   2.7928460   0.0000000   2.7928460   2.7928460   0.0000000   2.7928460   2.7928460
 AtZNuc=   1.0000000   8.0000000   1.0000000   1.0000000   8.0000000   1.0000000   1.0000000   8.0000000   1.0000000   1.0000000

  Atom        71          72          73          74          75          76          77          78          79          80
 IAtWgt=          16           1           1          16           1           1          16           1           1          16
 AtmWgt=  15.9949146   1.0078250   1.0078250  15.9949146   1.0078250   1.0078250  15.9949146   1.0078250   1.0078250  15.9949146
 NucSpn=           0           1           1           0           1           1           0           1           1           0
 AtZEff=   0.0000000   0.0000000   0.0000000   0.0000000   0.0000000   0.0000000   0.0000000   0.0000000   0.0000000   0.0000000
 NQMom=    0.0000000   0.0000000   0.0000000   0.0000000   0.0000000   0.0000000   0.0000000   0.0000000   0.0000000   0.0000000
 NMagM=    0.0000000   2.7928460   2.7928460   0.0000000   2.7928460   2.7928460   0.0000000   2.7928460   2.7928460   0.0000000
 AtZNuc=   8.0000000   1.0000000   1.0000000   8.0000000   1.0000000   1.0000000   8.0000000   1.0000000   1.0000000   8.0000000

  Atom        81          82          83          84          85          86          87          88          89          90
 IAtWgt=           1           1          16           1           1          16           1           1          16           1
 AtmWgt=   1.0078250   1.0078250  15.9949146   1.0078250   1.0078250  15.9949146   1.0078250   1.0078250  15.9949146   1.0078250
 NucSpn=           1           1           0           1           1           0           1           1           0           1
 AtZEff=   0.0000000   0.0000000   0.0000000   0.0000000   0.0000000   0.0000000   0.0000000   0.0000000   0.0000000   0.0000000
 NQMom=    0.0000000   0.0000000   0.0000000   0.0000000   0.0000000   0.0000000   0.0000000   0.0000000   0.0000000   0.0000000
 NMagM=    2.7928460   2.7928460   0.0000000   2.7928460   2.7928460   0.0000000   2.7928460   2.7928460   0.0000000   2.7928460
 AtZNuc=   1.0000000   1.0000000   8.0000000   1.0000000   1.0000000   8.0000000   1.0000000   1.0000000   8.0000000   1.0000000

  Atom        91          92          93          94          95          96          97          98          99         100
 IAtWgt=           1          16           1           1          16           1           1          16           1           1
 AtmWgt=   1.0078250  15.9949146   1.0078250   1.0078250  15.9949146   1.0078250   1.0078250  15.9949146   1.0078250   1.0078250
 NucSpn=           1           0           1           1           0           1           1           0           1           1
 AtZEff=   0.0000000   0.0000000   0.0000000   0.0000000   0.0000000   0.0000000   0.0000000   0.0000000   0.0000000   0.0000000
 NQMom=    0.0000000   0.0000000   0.0000000   0.0000000   0.0000000   0.0000000   0.0000000   0.0000000   0.0000000   0.0000000
 NMagM=    2.7928460   0.0000000   2.7928460   2.7928460   0.0000000   2.7928460   2.7928460   0.0000000   2.7928460   2.7928460
 AtZNuc=   1.0000000   8.0000000   1.0000000   1.0000000   8.0000000   1.0000000   1.0000000   8.0000000   1.0000000   1.0000000

  Atom       101         102         103         104         105         106         107         108         109         110
 IAtWgt=          16           1           1          16           1           1          16           1           1          16
 AtmWgt=  15.9949146   1.0078250   1.0078250  15.9949146   1.0078250   1.0078250  15.9949146   1.0078250   1.0078250  15.9949146
 NucSpn=           0           1           1           0           1           1           0           1           1           0
 AtZEff=   0.0000000   0.0000000   0.0000000   0.0000000   0.0000000   0.0000000   0.0000000   0.0000000   0.0000000   0.0000000
 NQMom=    0.0000000   0.0000000   0.0000000   0.0000000   0.0000000   0.0000000   0.0000000   0.0000000   0.0000000   0.0000000
 NMagM=    0.0000000   2.7928460   2.7928460   0.0000000   2.7928460   2.7928460   0.0000000   2.7928460   2.7928460   0.0000000
 AtZNuc=   8.0000000   1.0000000   1.0000000   8.0000000   1.0000000   1.0000000   8.0000000   1.0000000   1.0000000   8.0000000

  Atom       111         112         113         114         115         116         117         118         119         120
 IAtWgt=           1           1          16           1           1          16           1           1          16           1
 AtmWgt=   1.0078250   1.0078250  15.9949146   1.0078250   1.0078250  15.9949146   1.0078250   1.0078250  15.9949146   1.0078250
 NucSpn=           1           1           0           1           1           0           1           1           0           1
 AtZEff=   0.0000000   0.0000000   0.0000000   0.0000000   0.0000000   0.0000000   0.0000000   0.0000000   0.0000000   0.0000000
 NQMom=    0.0000000   0.0000000   0.0000000   0.0000000   0.0000000   0.0000000   0.0000000   0.0000000   0.0000000   0.0000000
 NMagM=    2.7928460   2.7928460   0.0000000   2.7928460   2.7928460   0.0000000   2.7928460   2.7928460   0.0000000   2.7928460
 AtZNuc=   1.0000000   1.0000000   8.0000000   1.0000000   1.0000000   8.0000000   1.0000000   1.0000000   8.0000000   1.0000000

  Atom       121         122         123         124         125         126         127         128         129         130
 IAtWgt=           1          16           1           1          16           1           1          16           1           1
 AtmWgt=   1.0078250  15.9949146   1.0078250   1.0078250  15.9949146   1.0078250   1.0078250  15.9949146   1.0078250   1.0078250
 NucSpn=           1           0           1           1           0           1           1           0           1           1
 AtZEff=   0.0000000   0.0000000   0.0000000   0.0000000   0.0000000   0.0000000   0.0000000   0.0000000   0.0000000   0.0000000
 NQMom=    0.0000000   0.0000000   0.0000000   0.0000000   0.0000000   0.0000000   0.0000000   0.0000000   0.0000000   0.0000000
 NMagM=    2.7928460   0.0000000   2.7928460   2.7928460   0.0000000   2.7928460   2.7928460   0.0000000   2.7928460   2.7928460
 AtZNuc=   1.0000000   8.0000000   1.0000000   1.0000000   8.0000000   1.0000000   1.0000000   8.0000000   1.0000000   1.0000000

  Atom       131         132         133         134         135         136         137         138         139         140
 IAtWgt=          16           1           1          16           1           1          16           1           1          16
 AtmWgt=  15.9949146   1.0078250   1.0078250  15.9949146   1.0078250   1.0078250  15.9949146   1.0078250   1.0078250  15.9949146
 NucSpn=           0           1           1           0           1           1           0           1           1           0
 AtZEff=   0.0000000   0.0000000   0.0000000   0.0000000   0.0000000   0.0000000   0.0000000   0.0000000   0.0000000   0.0000000
 NQMom=    0.0000000   0.0000000   0.0000000   0.0000000   0.0000000   0.0000000   0.0000000   0.0000000   0.0000000   0.0000000
 NMagM=    0.0000000   2.7928460   2.7928460   0.0000000   2.7928460   2.7928460   0.0000000   2.7928460   2.7928460   0.0000000
 AtZNuc=   8.0000000   1.0000000   1.0000000   8.0000000   1.0000000   1.0000000   8.0000000   1.0000000   1.0000000   8.0000000

  Atom       141         142         143         144         145         146         147         148         149         150
 IAtWgt=           1           1          16           1           1          16           1           1          16           1
 AtmWgt=   1.0078250   1.0078250  15.9949146   1.0078250   1.0078250  15.9949146   1.0078250   1.0078250  15.9949146   1.0078250
 NucSpn=           1           1           0           1           1           0           1           1           0           1
 AtZEff=   0.0000000   0.0000000   0.0000000   0.0000000   0.0000000   0.0000000   0.0000000   0.0000000   0.0000000   0.0000000
 NQMom=    0.0000000   0.0000000   0.0000000   0.0000000   0.0000000   0.0000000   0.0000000   0.0000000   0.0000000   0.0000000
 NMagM=    2.7928460   2.7928460   0.0000000   2.7928460   2.7928460   0.0000000   2.7928460   2.7928460   0.0000000   2.7928460
 AtZNuc=   1.0000000   1.0000000   8.0000000   1.0000000   1.0000000   8.0000000   1.0000000   1.0000000   8.0000000   1.0000000

  Atom       151         152         153         154         155         156         157         158         159         160
 IAtWgt=           1          16           1           1          16           1           1          16           1           1
 AtmWgt=   1.0078250  15.9949146   1.0078250   1.0078250  15.9949146   1.0078250   1.0078250  15.9949146   1.0078250   1.0078250
 NucSpn=           1           0           1           1           0           1           1           0           1           1
 AtZEff=   0.0000000   0.0000000   0.0000000   0.0000000   0.0000000   0.0000000   0.0000000   0.0000000   0.0000000   0.0000000
 NQMom=    0.0000000   0.0000000   0.0000000   0.0000000   0.0000000   0.0000000   0.0000000   0.0000000   0.0000000   0.0000000
 NMagM=    2.7928460   0.0000000   2.7928460   2.7928460   0.0000000   2.7928460   2.7928460   0.0000000   2.7928460   2.7928460
 AtZNuc=   1.0000000   8.0000000   1.0000000   1.0000000   8.0000000   1.0000000   1.0000000   8.0000000   1.0000000   1.0000000

  Atom       161         162         163         164         165         166         167         168         169         170
 IAtWgt=          16           1           1          16           1           1          16           1           1          16
 AtmWgt=  15.9949146   1.0078250   1.0078250  15.9949146   1.0078250   1.0078250  15.9949146   1.0078250   1.0078250  15.9949146
 NucSpn=           0           1           1           0           1           1           0           1           1           0
 AtZEff=   0.0000000   0.0000000   0.0000000   0.0000000   0.0000000   0.0000000   0.0000000   0.0000000   0.0000000   0.0000000
 NQMom=    0.0000000   0.0000000   0.0000000   0.0000000   0.0000000   0.0000000   0.0000000   0.0000000   0.0000000   0.0000000
 NMagM=    0.0000000   2.7928460   2.7928460   0.0000000   2.7928460   2.7928460   0.0000000   2.7928460   2.7928460   0.0000000
 AtZNuc=   8.0000000   1.0000000   1.0000000   8.0000000   1.0000000   1.0000000   8.0000000   1.0000000   1.0000000   8.0000000

  Atom       171         172         173         174         175         176         177         178         179         180
 IAtWgt=           1           1          16           1           1          16           1           1          16           1
 AtmWgt=   1.0078250   1.0078250  15.9949146   1.0078250   1.0078250  15.9949146   1.0078250   1.0078250  15.9949146   1.0078250
 NucSpn=           1           1           0           1           1           0           1           1           0           1
 AtZEff=   0.0000000   0.0000000   0.0000000   0.0000000   0.0000000   0.0000000   0.0000000   0.0000000   0.0000000   0.0000000
 NQMom=    0.0000000   0.0000000   0.0000000   0.0000000   0.0000000   0.0000000   0.0000000   0.0000000   0.0000000   0.0000000
 NMagM=    2.7928460   2.7928460   0.0000000   2.7928460   2.7928460   0.0000000   2.7928460   2.7928460   0.0000000   2.7928460
 AtZNuc=   1.0000000   1.0000000   8.0000000   1.0000000   1.0000000   8.0000000   1.0000000   1.0000000   8.0000000   1.0000000

  Atom       181         182         183         184         185         186         187         188         189         190
 IAtWgt=           1          16           1           1          16           1           1          16           1           1
 AtmWgt=   1.0078250  15.9949146   1.0078250   1.0078250  15.9949146   1.0078250   1.0078250  15.9949146   1.0078250   1.0078250
 NucSpn=           1           0           1           1           0           1           1           0           1           1
 AtZEff=   0.0000000   0.0000000   0.0000000   0.0000000   0.0000000   0.0000000   0.0000000   0.0000000   0.0000000   0.0000000
 NQMom=    0.0000000   0.0000000   0.0000000   0.0000000   0.0000000   0.0000000   0.0000000   0.0000000   0.0000000   0.0000000
 NMagM=    2.7928460   0.0000000   2.7928460   2.7928460   0.0000000   2.7928460   2.7928460   0.0000000   2.7928460   2.7928460
 AtZNuc=   1.0000000   8.0000000   1.0000000   1.0000000   8.0000000   1.0000000   1.0000000   8.0000000   1.0000000   1.0000000

  Atom       191         192         193         194         195         196         197         198         199         200
 IAtWgt=          16           1           1          16           1           1          16           1           1          16
 AtmWgt=  15.9949146   1.0078250   1.0078250  15.9949146   1.0078250   1.0078250  15.9949146   1.0078250   1.0078250  15.9949146
 NucSpn=           0           1           1           0           1           1           0           1           1           0
 AtZEff=   0.0000000   0.0000000   0.0000000   0.0000000   0.0000000   0.0000000   0.0000000   0.0000000   0.0000000   0.0000000
 NQMom=    0.0000000   0.0000000   0.0000000   0.0000000   0.0000000   0.0000000   0.0000000   0.0000000   0.0000000   0.0000000
 NMagM=    0.0000000   2.7928460   2.7928460   0.0000000   2.7928460   2.7928460   0.0000000   2.7928460   2.7928460   0.0000000
 AtZNuc=   8.0000000   1.0000000   1.0000000   8.0000000   1.0000000   1.0000000   8.0000000   1.0000000   1.0000000   8.0000000

  Atom       201         202         203         204         205         206         207         208         209         210
 IAtWgt=           1           1          16           1           1          16           1           1          16           1
 AtmWgt=   1.0078250   1.0078250  15.9949146   1.0078250   1.0078250  15.9949146   1.0078250   1.0078250  15.9949146   1.0078250
 NucSpn=           1           1           0           1           1           0           1           1           0           1
 AtZEff=   0.0000000   0.0000000   0.0000000   0.0000000   0.0000000   0.0000000   0.0000000   0.0000000   0.0000000   0.0000000
 NQMom=    0.0000000   0.0000000   0.0000000   0.0000000   0.0000000   0.0000000   0.0000000   0.0000000   0.0000000   0.0000000
 NMagM=    2.7928460   2.7928460   0.0000000   2.7928460   2.7928460   0.0000000   2.7928460   2.7928460   0.0000000   2.7928460
 AtZNuc=   1.0000000   1.0000000   8.0000000   1.0000000   1.0000000   8.0000000   1.0000000   1.0000000   8.0000000   1.0000000

  Atom       211         212         213         214         215         216         217         218         219         220
 IAtWgt=           1          16           1           1          16           1           1          16           1           1
 AtmWgt=   1.0078250  15.9949146   1.0078250   1.0078250  15.9949146   1.0078250   1.0078250  15.9949146   1.0078250   1.0078250
 NucSpn=           1           0           1           1           0           1           1           0           1           1
 AtZEff=   0.0000000   0.0000000   0.0000000   0.0000000   0.0000000   0.0000000   0.0000000   0.0000000   0.0000000   0.0000000
 NQMom=    0.0000000   0.0000000   0.0000000   0.0000000   0.0000000   0.0000000   0.0000000   0.0000000   0.0000000   0.0000000
 NMagM=    2.7928460   0.0000000   2.7928460   2.7928460   0.0000000   2.7928460   2.7928460   0.0000000   2.7928460   2.7928460
 AtZNuc=   1.0000000   8.0000000   1.0000000   1.0000000   8.0000000   1.0000000   1.0000000   8.0000000   1.0000000   1.0000000

  Atom       221         222         223         224         225         226         227         228         229         230
 IAtWgt=          16           1           1          16           1           1          16           1           1          16
 AtmWgt=  15.9949146   1.0078250   1.0078250  15.9949146   1.0078250   1.0078250  15.9949146   1.0078250   1.0078250  15.9949146
 NucSpn=           0           1           1           0           1           1           0           1           1           0
 AtZEff=   0.0000000   0.0000000   0.0000000   0.0000000   0.0000000   0.0000000   0.0000000   0.0000000   0.0000000   0.0000000
 NQMom=    0.0000000   0.0000000   0.0000000   0.0000000   0.0000000   0.0000000   0.0000000   0.0000000   0.0000000   0.0000000
 NMagM=    0.0000000   2.7928460   2.7928460   0.0000000   2.7928460   2.7928460   0.0000000   2.7928460   2.7928460   0.0000000
 AtZNuc=   8.0000000   1.0000000   1.0000000   8.0000000   1.0000000   1.0000000   8.0000000   1.0000000   1.0000000   8.0000000

  Atom       231         232         233         234         235         236         237         238         239         240
 IAtWgt=           1           1          16           1           1          16           1           1          16           1
 AtmWgt=   1.0078250   1.0078250  15.9949146   1.0078250   1.0078250  15.9949146   1.0078250   1.0078250  15.9949146   1.0078250
 NucSpn=           1           1           0           1           1           0           1           1           0           1
 AtZEff=   0.0000000   0.0000000   0.0000000   0.0000000   0.0000000   0.0000000   0.0000000   0.0000000   0.0000000   0.0000000
 NQMom=    0.0000000   0.0000000   0.0000000   0.0000000   0.0000000   0.0000000   0.0000000   0.0000000   0.0000000   0.0000000
 NMagM=    2.7928460   2.7928460   0.0000000   2.7928460   2.7928460   0.0000000   2.7928460   2.7928460   0.0000000   2.7928460
 AtZNuc=   1.0000000   1.0000000   8.0000000   1.0000000   1.0000000   8.0000000   1.0000000   1.0000000   8.0000000   1.0000000

  Atom       241         242         243         244         245         246         247         248         249         250
 IAtWgt=           1          16           1           1          16           1           1          16           1           1
 AtmWgt=   1.0078250  15.9949146   1.0078250   1.0078250  15.9949146   1.0078250   1.0078250  15.9949146   1.0078250   1.0078250
 NucSpn=           1           0           1           1           0           1           1           0           1           1
 AtZEff=   0.0000000   0.0000000   0.0000000   0.0000000   0.0000000   0.0000000   0.0000000   0.0000000   0.0000000   0.0000000
 NQMom=    0.0000000   0.0000000   0.0000000   0.0000000   0.0000000   0.0000000   0.0000000   0.0000000   0.0000000   0.0000000
 NMagM=    2.7928460   0.0000000   2.7928460   2.7928460   0.0000000   2.7928460   2.7928460   0.0000000   2.7928460   2.7928460
 AtZNuc=   1.0000000   8.0000000   1.0000000   1.0000000   8.0000000   1.0000000   1.0000000   8.0000000   1.0000000   1.0000000

  Atom       251         252         253         254         255         256         257         258         259         260
 IAtWgt=          16           1           1          16           1           1          16           1           1          16
 AtmWgt=  15.9949146   1.0078250   1.0078250  15.9949146   1.0078250   1.0078250  15.9949146   1.0078250   1.0078250  15.9949146
 NucSpn=           0           1           1           0           1           1           0           1           1           0
 AtZEff=   0.0000000   0.0000000   0.0000000   0.0000000   0.0000000   0.0000000   0.0000000   0.0000000   0.0000000   0.0000000
 NQMom=    0.0000000   0.0000000   0.0000000   0.0000000   0.0000000   0.0000000   0.0000000   0.0000000   0.0000000   0.0000000
 NMagM=    0.0000000   2.7928460   2.7928460   0.0000000   2.7928460   2.7928460   0.0000000   2.7928460   2.7928460   0.0000000
 AtZNuc=   8.0000000   1.0000000   1.0000000   8.0000000   1.0000000   1.0000000   8.0000000   1.0000000   1.0000000   8.0000000

  Atom       261         262         263         264         265         266         267         268         269         270
 IAtWgt=           1           1          16           1           1          16           1           1          16           1
 AtmWgt=   1.0078250   1.0078250  15.9949146   1.0078250   1.0078250  15.9949146   1.0078250   1.0078250  15.9949146   1.0078250
 NucSpn=           1           1           0           1           1           0           1           1           0           1
 AtZEff=   0.0000000   0.0000000   0.0000000   0.0000000   0.0000000   0.0000000   0.0000000   0.0000000   0.0000000   0.0000000
 NQMom=    0.0000000   0.0000000   0.0000000   0.0000000   0.0000000   0.0000000   0.0000000   0.0000000   0.0000000   0.0000000
 NMagM=    2.7928460   2.7928460   0.0000000   2.7928460   2.7928460   0.0000000   2.7928460   2.7928460   0.0000000   2.7928460
 AtZNuc=   1.0000000   1.0000000   8.0000000   1.0000000   1.0000000   8.0000000   1.0000000   1.0000000   8.0000000   1.0000000

  Atom       271         272         273         274         275         276         277         278         279         280
 IAtWgt=           1          16           1           1          16           1           1          16           1           1
 AtmWgt=   1.0078250  15.9949146   1.0078250   1.0078250  15.9949146   1.0078250   1.0078250  15.9949146   1.0078250   1.0078250
 NucSpn=           1           0           1           1           0           1           1           0           1           1
 AtZEff=   0.0000000   0.0000000   0.0000000   0.0000000   0.0000000   0.0000000   0.0000000   0.0000000   0.0000000   0.0000000
 NQMom=    0.0000000   0.0000000   0.0000000   0.0000000   0.0000000   0.0000000   0.0000000   0.0000000   0.0000000   0.0000000
 NMagM=    2.7928460   0.0000000   2.7928460   2.7928460   0.0000000   2.7928460   2.7928460   0.0000000   2.7928460   2.7928460
 AtZNuc=   1.0000000   8.0000000   1.0000000   1.0000000   8.0000000   1.0000000   1.0000000   8.0000000   1.0000000   1.0000000

  Atom       281         282         283         284         285         286         287         288         289         290
 IAtWgt=          16           1           1          16           1           1          16           1           1          16
 AtmWgt=  15.9949146   1.0078250   1.0078250  15.9949146   1.0078250   1.0078250  15.9949146   1.0078250   1.0078250  15.9949146
 NucSpn=           0           1           1           0           1           1           0           1           1           0
 AtZEff=   0.0000000   0.0000000   0.0000000   0.0000000   0.0000000   0.0000000   0.0000000   0.0000000   0.0000000   0.0000000
 NQMom=    0.0000000   0.0000000   0.0000000   0.0000000   0.0000000   0.0000000   0.0000000   0.0000000   0.0000000   0.0000000
 NMagM=    0.0000000   2.7928460   2.7928460   0.0000000   2.7928460   2.7928460   0.0000000   2.7928460   2.7928460   0.0000000
 AtZNuc=   8.0000000   1.0000000   1.0000000   8.0000000   1.0000000   1.0000000   8.0000000   1.0000000   1.0000000   8.0000000

  Atom       291         292         293         294         295         296         297         298         299         300
 IAtWgt=           1           1          16           1           1          16           1           1          16           1
 AtmWgt=   1.0078250   1.0078250  15.9949146   1.0078250   1.0078250  15.9949146   1.0078250   1.0078250  15.9949146   1.0078250
 NucSpn=           1           1           0           1           1           0           1           1           0           1
 AtZEff=   0.0000000   0.0000000   0.0000000   0.0000000   0.0000000   0.0000000   0.0000000   0.0000000   0.0000000   0.0000000
 NQMom=    0.0000000   0.0000000   0.0000000   0.0000000   0.0000000   0.0000000   0.0000000   0.0000000   0.0000000   0.0000000
 NMagM=    2.7928460   2.7928460   0.0000000   2.7928460   2.7928460   0.0000000   2.7928460   2.7928460   0.0000000   2.7928460
 AtZNuc=   1.0000000   1.0000000   8.0000000   1.0000000   1.0000000   8.0000000   1.0000000   1.0000000   8.0000000   1.0000000

  Atom       301         302         303         304         305         306         307         308         309         310
 IAtWgt=           1          16           1           1          16           1           1          16           1           1
 AtmWgt=   1.0078250  15.9949146   1.0078250   1.0078250  15.9949146   1.0078250   1.0078250  15.9949146   1.0078250   1.0078250
 NucSpn=           1           0           1           1           0           1           1           0           1           1
 AtZEff=   0.0000000   0.0000000   0.0000000   0.0000000   0.0000000   0.0000000   0.0000000   0.0000000   0.0000000   0.0000000
 NQMom=    0.0000000   0.0000000   0.0000000   0.0000000   0.0000000   0.0000000   0.0000000   0.0000000   0.0000000   0.0000000
 NMagM=    2.7928460   0.0000000   2.7928460   2.7928460   0.0000000   2.7928460   2.7928460   0.0000000   2.7928460   2.7928460
 AtZNuc=   1.0000000   8.0000000   1.0000000   1.0000000   8.0000000   1.0000000   1.0000000   8.0000000   1.0000000   1.0000000

  Atom       311         312         313         314         315         316         317         318         319         320
 IAtWgt=          16           1           1          16           1           1          16           1           1          16
 AtmWgt=  15.9949146   1.0078250   1.0078250  15.9949146   1.0078250   1.0078250  15.9949146   1.0078250   1.0078250  15.9949146
 NucSpn=           0           1           1           0           1           1           0           1           1           0
 AtZEff=   0.0000000   0.0000000   0.0000000   0.0000000   0.0000000   0.0000000   0.0000000   0.0000000   0.0000000   0.0000000
 NQMom=    0.0000000   0.0000000   0.0000000   0.0000000   0.0000000   0.0000000   0.0000000   0.0000000   0.0000000   0.0000000
 NMagM=    0.0000000   2.7928460   2.7928460   0.0000000   2.7928460   2.7928460   0.0000000   2.7928460   2.7928460   0.0000000
 AtZNuc=   8.0000000   1.0000000   1.0000000   8.0000000   1.0000000   1.0000000   8.0000000   1.0000000   1.0000000   8.0000000

  Atom       321         322         323         324         325         326         327         328         329         330
 IAtWgt=           1           1          16           1           1          16           1           1          16           1
 AtmWgt=   1.0078250   1.0078250  15.9949146   1.0078250   1.0078250  15.9949146   1.0078250   1.0078250  15.9949146   1.0078250
 NucSpn=           1           1           0           1           1           0           1           1           0           1
 AtZEff=   0.0000000   0.0000000   0.0000000   0.0000000   0.0000000   0.0000000   0.0000000   0.0000000   0.0000000   0.0000000
 NQMom=    0.0000000   0.0000000   0.0000000   0.0000000   0.0000000   0.0000000   0.0000000   0.0000000   0.0000000   0.0000000
 NMagM=    2.7928460   2.7928460   0.0000000   2.7928460   2.7928460   0.0000000   2.7928460   2.7928460   0.0000000   2.7928460
 AtZNuc=   1.0000000   1.0000000   8.0000000   1.0000000   1.0000000   8.0000000   1.0000000   1.0000000   8.0000000   1.0000000

  Atom       331         332         333         334         335         336         337         338         339         340
 IAtWgt=           1          16           1           1          16           1           1          16           1           1
 AtmWgt=   1.0078250  15.9949146   1.0078250   1.0078250  15.9949146   1.0078250   1.0078250  15.9949146   1.0078250   1.0078250
 NucSpn=           1           0           1           1           0           1           1           0           1           1
 AtZEff=   0.0000000   0.0000000   0.0000000   0.0000000   0.0000000   0.0000000   0.0000000   0.0000000   0.0000000   0.0000000
 NQMom=    0.0000000   0.0000000   0.0000000   0.0000000   0.0000000   0.0000000   0.0000000   0.0000000   0.0000000   0.0000000
 NMagM=    2.7928460   0.0000000   2.7928460   2.7928460   0.0000000   2.7928460   2.7928460   0.0000000   2.7928460   2.7928460
 AtZNuc=   1.0000000   8.0000000   1.0000000   1.0000000   8.0000000   1.0000000   1.0000000   8.0000000   1.0000000   1.0000000

  Atom       341         342         343         344         345         346         347         348         349         350
 IAtWgt=          16           1           1          16           1           1          16           1           1          16
 AtmWgt=  15.9949146   1.0078250   1.0078250  15.9949146   1.0078250   1.0078250  15.9949146   1.0078250   1.0078250  15.9949146
 NucSpn=           0           1           1           0           1           1           0           1           1           0
 AtZEff=   0.0000000   0.0000000   0.0000000   0.0000000   0.0000000   0.0000000   0.0000000   0.0000000   0.0000000   0.0000000
 NQMom=    0.0000000   0.0000000   0.0000000   0.0000000   0.0000000   0.0000000   0.0000000   0.0000000   0.0000000   0.0000000
 NMagM=    0.0000000   2.7928460   2.7928460   0.0000000   2.7928460   2.7928460   0.0000000   2.7928460   2.7928460   0.0000000
 AtZNuc=   8.0000000   1.0000000   1.0000000   8.0000000   1.0000000   1.0000000   8.0000000   1.0000000   1.0000000   8.0000000

  Atom       351         352         353         354         355         356         357         358         359         360
 IAtWgt=           1           1          16           1           1          16           1           1          16           1
 AtmWgt=   1.0078250   1.0078250  15.9949146   1.0078250   1.0078250  15.9949146   1.0078250   1.0078250  15.9949146   1.0078250
 NucSpn=           1           1           0           1           1           0           1           1           0           1
 AtZEff=   0.0000000   0.0000000   0.0000000   0.0000000   0.0000000   0.0000000   0.0000000   0.0000000   0.0000000   0.0000000
 NQMom=    0.0000000   0.0000000   0.0000000   0.0000000   0.0000000   0.0000000   0.0000000   0.0000000   0.0000000   0.0000000
 NMagM=    2.7928460   2.7928460   0.0000000   2.7928460   2.7928460   0.0000000   2.7928460   2.7928460   0.0000000   2.7928460
 AtZNuc=   1.0000000   1.0000000   8.0000000   1.0000000   1.0000000   8.0000000   1.0000000   1.0000000   8.0000000   1.0000000

  Atom       361         362         363         364         365         366         367         368         369         370
 IAtWgt=           1          16           1           1          16           1           1          16           1           1
 AtmWgt=   1.0078250  15.9949146   1.0078250   1.0078250  15.9949146   1.0078250   1.0078250  15.9949146   1.0078250   1.0078250
 NucSpn=           1           0           1           1           0           1           1           0           1           1
 AtZEff=   0.0000000   0.0000000   0.0000000   0.0000000   0.0000000   0.0000000   0.0000000   0.0000000   0.0000000   0.0000000
 NQMom=    0.0000000   0.0000000   0.0000000   0.0000000   0.0000000   0.0000000   0.0000000   0.0000000   0.0000000   0.0000000
 NMagM=    2.7928460   0.0000000   2.7928460   2.7928460   0.0000000   2.7928460   2.7928460   0.0000000   2.7928460   2.7928460
 AtZNuc=   1.0000000   8.0000000   1.0000000   1.0000000   8.0000000   1.0000000   1.0000000   8.0000000   1.0000000   1.0000000

  Atom       371         372         373         374         375         376         377         378         379         380
 IAtWgt=          16           1           1          16           1           1          16           1           1          16
 AtmWgt=  15.9949146   1.0078250   1.0078250  15.9949146   1.0078250   1.0078250  15.9949146   1.0078250   1.0078250  15.9949146
 NucSpn=           0           1           1           0           1           1           0           1           1           0
 AtZEff=   0.0000000   0.0000000   0.0000000   0.0000000   0.0000000   0.0000000   0.0000000   0.0000000   0.0000000   0.0000000
 NQMom=    0.0000000   0.0000000   0.0000000   0.0000000   0.0000000   0.0000000   0.0000000   0.0000000   0.0000000   0.0000000
 NMagM=    0.0000000   2.7928460   2.7928460   0.0000000   2.7928460   2.7928460   0.0000000   2.7928460   2.7928460   0.0000000
 AtZNuc=   8.0000000   1.0000000   1.0000000   8.0000000   1.0000000   1.0000000   8.0000000   1.0000000   1.0000000   8.0000000

  Atom       381         382         383         384         385
 IAtWgt=           1           1          16           1           1
 AtmWgt=   1.0078250   1.0078250  15.9949146   1.0078250   1.0078250
 NucSpn=           1           1           0           1           1
 AtZEff=   0.0000000   0.0000000   0.0000000   0.0000000   0.0000000
 NQMom=    0.0000000   0.0000000   0.0000000   0.0000000   0.0000000
 NMagM=    2.7928460   2.7928460   0.0000000   2.7928460   2.7928460
 AtZNuc=   1.0000000   1.0000000   8.0000000   1.0000000   1.0000000
 Leave Link  101 at Tue May 15 01:49:05 2018, MaxMem= 14763950080 cpu:        33.3
 (Enter /cm/shared/gaussian/g09.e01/intel64-sandybridge/g09/l103.exe)

 GradGradGradGradGradGradGradGradGradGradGradGradGradGradGradGradGradGrad
 Berny optimization.
 Initialization pass.
 Trust Radius=3.00D-01 FncErr=1.00D-07 GrdErr=1.00D-07
 Number of steps in this run=      2 maximum allowed number of steps=      2.
 GradGradGradGradGradGradGradGradGradGradGradGradGradGradGradGradGradGrad

 Leave Link  103 at Tue May 15 01:49:10 2018, MaxMem= 14763950080 cpu:       271.1
 (Enter /cm/shared/gaussian/g09.e01/intel64-sandybridge/g09/l202.exe)
 Symmetry turned off by external request.
 Stoichiometry    BrH256O128(1-)
 Framework group  C1[X(BrH256O128)]
 Deg. of freedom  1149
 Full point group                 C1      NOp   1
                          Input orientation:                          
 ---------------------------------------------------------------------
 Center     Atomic      Atomic             Coordinates (Angstroms)
 Number     Number       Type             X           Y           Z
 ---------------------------------------------------------------------
      1         35           0       20.000000   20.000000   20.000000
      2          8           0       22.970000   21.270000   19.440000
      3          1           0       22.090000   21.000000   19.670000
      4          1           0       22.910000   22.210000   19.300000
      5          8           0       16.780000   20.100000   20.800000
      6          1           0       17.730000   20.200000   20.890000
      7          1           0       16.440000   20.990000   20.870000
      8          8           0       20.050000   23.030000   21.530000
      9          1           0       20.020000   22.120000   21.230000
     10          1           0       20.980000   23.190000   21.700000
     11          8           0       21.080000   18.370000   17.260000
     12          1           0       20.760000   19.070000   17.840000
     13          1           0       20.290000   18.030000   16.840000
     14          8           0       20.800000   18.740000   23.010000
     15          1           0       20.290000   18.900000   22.210000
     16          1           0       20.420000   19.320000   23.660000
     17          8           0       18.210000   21.860000   17.510000
     18          1           0       18.510000   21.200000   18.130000
     19          1           0       17.500000   22.320000   17.980000
     20          8           0       16.840000   18.010000   19.030000
     21          1           0       17.020000   18.850000   19.450000
     22          1           0       16.160000   18.200000   18.380000
     23          8           0       18.570000   17.360000   17.000000
     24          1           0       18.500000   17.750000   17.870000
     25          1           0       17.730000   16.930000   16.860000
     26          8           0       22.830000   17.400000   21.650000
     27          1           0       21.930000   17.690000   21.770000
     28          1           0       23.200000   17.400000   22.530000
     29          8           0       21.810000   16.030000   19.410000
     30          1           0       22.390000   16.730000   19.720000
     31          1           0       20.930000   16.370000   19.560000
     32          8           0       23.070000   22.130000   22.120000
     33          1           0       23.220000   21.850000   21.210000
     34          1           0       23.460000   21.440000   22.650000
     35          8           0       18.530000   21.970000   23.670000
     36          1           0       18.870000   22.480000   22.940000
     37          1           0       18.890000   22.400000   24.450000
     38          8           0       24.450000   18.920000   19.600000
     39          1           0       24.040000   19.780000   19.530000
     40          1           0       23.820000   18.400000   20.110000
     41          8           0       17.810000   15.660000   20.080000
     42          1           0       17.700000   16.590000   19.860000
     43          1           0       17.640000   15.210000   19.260000
     44          8           0       20.510000   23.090000   16.080000
     45          1           0       19.980000   22.430000   16.540000
     46          1           0       20.310000   22.950000   15.160000
     47          8           0       17.080000   23.870000   20.130000
     48          1           0       18.020000   23.900000   19.970000
     49          1           0       16.860000   24.750000   20.440000
     50          8           0       17.860000   20.590000   14.980000
     51          1           0       18.210000   20.940000   15.790000
     52          1           0       17.530000   19.720000   15.210000
     53          8           0       19.700000   16.330000   24.120000
     54          1           0       20.270000   16.220000   24.880000
     55          1           0       20.020000   17.120000   23.690000
     56          8           0       23.550000   17.650000   16.410000
     57          1           0       22.750000   18.110000   16.660000
     58          1           0       23.670000   16.990000   17.100000
     59          8           0       22.170000   24.030000   18.020000
     60          1           0       21.640000   23.640000   17.320000
     61          1           0       21.620000   24.730000   18.370000
     62          8           0       23.600000   21.920000   16.240000
     63          1           0       24.090000   21.140000   16.480000
     64          1           0       23.140000   22.170000   17.040000
     65          8           0       14.480000   18.970000   21.770000
     66          1           0       14.590000   18.170000   22.280000
     67          1           0       15.310000   19.060000   21.300000
     68          8           0       19.220000   14.590000   21.890000
     69          1           0       18.690000   15.110000   21.280000
     70          1           0       19.350000   15.160000   22.650000
     71          8           0       15.620000   22.510000   23.090000
     72          1           0       16.460000   22.110000   23.300000
     73          1           0       15.100000   22.410000   23.880000
     74          8           0       19.340000   19.550000   25.370000
     75          1           0       19.340000   19.380000   26.320000
     76          1           0       18.450000   19.340000   25.090000
     77          8           0       20.060000   15.600000   15.590000
     78          1           0       19.700000   16.300000   16.130000
     79          1           0       19.300000   15.080000   15.340000
     80          8           0       16.960000   16.050000   23.150000
     81          1           0       17.890000   16.070000   23.390000
     82          1           0       16.960000   15.890000   22.210000
     83          8           0       14.580000   22.910000   20.630000
     84          1           0       15.040000   22.670000   21.430000
     85          1           0       15.190000   23.500000   20.180000
     86          8           0       21.470000   14.000000   17.490000
     87          1           0       21.250000   14.350000   16.630000
     88          1           0       21.630000   14.770000   18.030000
     89          8           0       22.900000   19.660000   26.120000
     90          1           0       23.590000   20.320000   26.180000
     91          1           0       22.420000   19.870000   25.320000
     92          8           0       25.170000   19.760000   16.930000
     93          1           0       24.640000   19.070000   16.540000
     94          1           0       25.400000   19.440000   17.790000
     95          8           0       14.870000   18.880000   17.350000
     96          1           0       14.430000   18.360000   16.670000
     97          1           0       14.160000   19.310000   17.820000
     98          8           0       20.180000   22.180000   26.110000
     99          1           0       20.280000   22.090000   27.060000
    100          1           0       19.970000   21.290000   25.810000
    101          8           0       24.730000   20.340000   23.600000
    102          1           0       25.160000   19.800000   24.260000
    103          1           0       25.440000   20.600000   23.010000
    104          8           0       25.040000   23.890000   22.760000
    105          1           0       25.770000   23.840000   22.140000
    106          1           0       24.430000   23.220000   22.460000
    107          8           0       19.990000   25.940000   18.560000
    108          1           0       19.260000   25.910000   17.950000
    109          1           0       19.580000   26.030000   19.420000
    110          8           0       26.430000   17.100000   19.220000
    111          1           0       25.640000   17.580000   19.460000
    112          1           0       26.110000   16.240000   18.930000
    113          8           0       15.810000   23.270000   16.880000
    114          1           0       15.390000   22.680000   16.250000
    115          1           0       15.230000   23.270000   17.640000
    116          8           0       18.590000   26.320000   20.730000
    117          1           0       18.600000   27.230000   21.020000
    118          1           0       18.600000   25.810000   21.530000
    119          8           0       16.960000   24.620000   24.150000
    120          1           0       16.860000   23.690000   23.960000
    121          1           0       16.310000   25.060000   23.600000
    122          8           0       13.170000   20.100000   19.230000
    123          1           0       13.750000   20.780000   19.560000
    124          1           0       12.630000   19.860000   19.980000
    125          8           0       22.880000   23.240000   25.320000
    126          1           0       22.090000   22.690000   25.320000
    127          1           0       22.610000   24.040000   24.860000
    128          8           0       13.560000   16.780000   19.730000
    129          1           0       12.850000   17.300000   20.090000
    130          1           0       14.250000   17.420000   19.530000
    131          8           0       17.250000   25.530000   17.140000
    132          1           0       16.960000   25.510000   18.050000
    133          1           0       16.990000   24.680000   16.790000
    134          8           0       22.330000   17.950000   13.630000
    135          1           0       23.110000   18.020000   13.080000
    136          1           0       22.670000   17.840000   14.520000
    137          8           0       26.780000   20.400000   21.640000
    138          1           0       27.730000   20.290000   21.670000
    139          1           0       26.520000   20.030000   20.800000
    140          8           0       14.710000   17.150000   23.860000
    141          1           0       14.850000   17.910000   24.430000
    142          1           0       15.590000   16.800000   23.710000
    143          8           0       23.920000   13.630000   19.980000
    144          1           0       23.130000   14.170000   20.020000
    145          1           0       24.370000   13.800000   20.810000
    146          8           0       24.440000   15.490000   17.810000
    147          1           0       24.800000   14.840000   17.210000
    148          1           0       24.140000   14.970000   18.570000
    149          8           0       24.540000   16.330000   23.730000
    150          1           0       25.450000   16.150000   23.950000
    151          1           0       24.380000   15.830000   22.930000
    152          8           0       16.810000   14.500000   17.790000
    153          1           0       15.920000   14.780000   17.560000
    154          1           0       16.830000   13.570000   17.570000
    155          8           0       22.250000   26.350000   16.410000
    156          1           0       21.360000   26.310000   16.050000
    157          1           0       22.370000   25.500000   16.840000
    158          8           0       15.010000   21.480000   15.020000
    159          1           0       15.860000   21.140000   14.760000
    160          1           0       14.410000   20.750000   14.910000
    161          8           0       24.340000   20.170000   13.690000
    162          1           0       24.500000   20.970000   13.200000
    163          1           0       23.980000   20.470000   14.530000
    164          8           0       19.260000   26.180000   23.320000
    165          1           0       18.670000   25.610000   23.810000
    166          1           0       18.920000   27.060000   23.480000
    167          8           0       17.050000   12.880000   20.440000
    168          1           0       16.210000   13.340000   20.490000
    169          1           0       17.690000   13.530000   20.750000
    170          8           0       21.730000   25.590000   24.290000
    171          1           0       22.210000   26.010000   23.580000
    172          1           0       20.820000   25.580000   24.000000
    173          8           0       19.940000   23.220000   13.420000
    174          1           0       19.920000   23.430000   12.490000
    175          1           0       19.070000   23.430000   13.740000
    176          8           0       18.410000   20.250000   12.010000
    177          1           0       18.450000   20.170000   12.970000
    178          1           0       17.900000   21.050000   11.870000
    179          8           0       23.320000   16.980000   26.020000
    180          1           0       23.810000   16.820000   25.220000
    181          1           0       23.290000   17.940000   26.100000
    182          8           0       17.650000   24.530000   13.970000
    183          1           0       16.980000   24.920000   13.420000
    184          1           0       17.180000   24.250000   14.760000
    185          8           0       20.920000   12.360000   22.940000
    186          1           0       20.640000   13.110000   22.410000
    187          1           0       21.860000   12.510000   23.060000
    188          8           0       24.690000   23.760000   14.200000
    189          1           0       24.140000   23.540000   13.450000
    190          1           0       24.200000   23.430000   14.960000
    191          8           0       19.700000   12.100000   18.230000
    192          1           0       19.500000   12.260000   19.150000
    193          1           0       20.140000   12.890000   17.940000
    194          8           0       19.670000   24.940000   26.340000
    195          1           0       18.750000   24.760000   26.540000
    196          1           0       20.060000   24.080000   26.230000
    197          8           0       14.830000   14.290000   20.720000
    198          1           0       14.340000   14.280000   21.550000
    199          1           0       14.430000   15.000000   20.220000
    200          8           0       28.010000   19.190000   18.580000
    201          1           0       28.750000   18.670000   18.280000
    202          1           0       27.270000   18.590000   18.570000
    203          8           0       25.710000   25.750000   19.520000
    204          1           0       25.150000   25.530000   20.260000
    205          1           0       25.150000   26.260000   18.930000
    206          8           0       21.000000   16.060000   26.610000
    207          1           0       21.220000   15.170000   26.900000
[...]
   Y335      53.27138   0.00983   0.00000   0.00439   0.00494  53.27632
   Z335      30.46239   0.00535   0.00000   0.00394   0.00374  30.46612
   X336      31.29386   0.00571   0.00000   0.00835   0.00972  31.30358
   Y336      51.47614  -0.01048   0.00000  -0.00694  -0.00641  51.46973
   Z336      30.72695   0.00268   0.00000   0.00397   0.00370  30.73065
   X337      31.31276   0.00079   0.00000  -0.00004   0.00160  31.31436
   Y337      53.47925  -0.00124   0.00000  -0.00233  -0.00171  53.47754
   Z337      28.66715  -0.00550   0.00000  -0.00295  -0.00314  28.66401
   X338      49.77539  -0.00015   0.00000  -0.00585  -0.00462  49.77076
   Y338      47.43213   0.00439   0.00000   0.00337   0.00297  47.43510
   Z338      29.95216   0.01640   0.00000   0.00832   0.00936  29.96152
   X339      50.70135   0.00283   0.00000   0.00066   0.00203  50.70338
   Y339      48.64155   0.00390   0.00000   0.00255   0.00214  48.64370
   Z339      28.96950  -0.00316   0.00000  -0.00093   0.00023  28.96973
   X340      48.98170  -0.00555   0.00000  -0.00342  -0.00216  48.97955
   Y340      46.37388  -0.00883   0.00000  -0.00576  -0.00607  46.36781
   Z340      28.70494  -0.01399   0.00000  -0.01179  -0.01085  28.69409
   X341      22.88458  -0.01743   0.00000  -0.01013  -0.01107  22.87351
   Y341      30.55687  -0.00318   0.00000  -0.00174  -0.00134  30.55553
   Z341      46.22270  -0.00767   0.00000  -0.00381  -0.00553  46.21717
   X342      23.35702   0.00625   0.00000   0.00599   0.00490  23.36192
   Y342      30.46239  -0.00160   0.00000  -0.00308  -0.00277  30.45961
   Z342      47.96125   0.00763   0.00000   0.00382   0.00214  47.96339
   X343      24.39636   0.01346   0.00000   0.01086   0.01002  24.40638
   Y343      31.10489   0.00338   0.00000   0.00138   0.00173  31.10662
   Z343      45.39122   0.00022   0.00000   0.00533   0.00376  45.39498
   X344      38.34254  -0.01062   0.00000  -0.01278  -0.01275  38.32979
   Y344      52.66667   0.02101   0.00000   0.01549   0.01500  52.68167
   Z344      48.54706   0.00554   0.00000  -0.00112  -0.00079  48.54627
   X345      38.02129   0.00301   0.00000   0.00648   0.00643  38.02772
   Y345      50.90922  -0.01807   0.00000  -0.01061  -0.01108  50.89814
   Z345      48.30140   0.00136   0.00000   0.00672   0.00696  48.30836
   X346      39.79763   0.00619   0.00000   0.00385   0.00398  39.80161
   Y346      53.00682  -0.00590   0.00000  -0.00845  -0.00899  52.99783
   Z346      47.52661  -0.00333   0.00000  -0.00053  -0.00007  47.52654
   X347      26.85301  -0.00202   0.00000  -0.00638  -0.00493  26.84808
   Y347      43.72826   0.01717   0.00000   0.01481   0.01581  43.74407
   Z347      24.66093  -0.01165   0.00000  -0.00910  -0.01001  24.65092
   X348      27.07978   0.00029   0.00000  -0.00070   0.00074  27.08052
   Y348      42.21648  -0.00337   0.00000  -0.00055   0.00047  42.21695
   Z348      23.67827   0.00390   0.00000   0.00674   0.00580  23.68407
   X349      26.66404   0.00528   0.00000   0.00892   0.01020  26.67424
   Y349      43.12355  -0.00895   0.00000  -0.00895  -0.00801  43.11554
   Z349      26.36168   0.00238   0.00000  -0.00400  -0.00495  26.35673
   X350      34.16625  -0.01437   0.00000  -0.00908  -0.00920  34.15705
   Y350      22.22318   0.00231   0.00000   0.00230   0.00271  22.22589
   Z350      30.25452  -0.02059   0.00000  -0.00952  -0.01065  30.24386
   X351      35.05442   0.01210   0.00000   0.00680   0.00656  35.06098
   Y351      22.27987   0.00182   0.00000   0.00303   0.00333  22.28320
   Z351      31.84189   0.02164   0.00000   0.01453   0.01347  31.85536
   X352      35.05442   0.00106   0.00000   0.00060   0.00049  35.05491
   Y352      20.95706  -0.00063   0.00000  -0.00053  -0.00013  20.95693
   Z352      29.29076   0.00072   0.00000   0.00134   0.00023  29.29099
   X353      32.33321   0.01704   0.00000   0.01251   0.01194  32.34515
   Y353      46.18491  -0.00453   0.00000  -0.00516  -0.00547  46.17944
   Z353      51.89188   0.01112   0.00000   0.00279   0.00240  51.89428
   X354      31.36945  -0.01285   0.00000  -0.00834  -0.00877  31.36069
   Y354      46.94080   0.01238   0.00000   0.01201   0.01180  46.95260
   Z354      50.56907  -0.01376   0.00000  -0.00570  -0.00613  50.56294
   X355      31.53953  -0.00745   0.00000  -0.00797  -0.00865  31.53087
   Y355      44.57864  -0.00711   0.00000  -0.00474  -0.00501  44.57363
   Z355      52.17534   0.00271   0.00000   0.00431   0.00380  52.17914
   X356      39.13623  -0.01043   0.00000  -0.01208  -0.01302  39.12321
   Y356      42.63222  -0.00777   0.00000  -0.00988  -0.01063  42.62159
   Z356      54.12176   0.00506   0.00000   0.01254   0.01256  54.13431
   X357      40.42124   0.00784   0.00000   0.00888   0.00788  40.42912
   Y357      43.18024   0.00324   0.00000   0.00433   0.00348  43.18372
   Z357      55.27449  -0.00137   0.00000  -0.00648  -0.00634  55.26815
   X358      37.68114  -0.00259   0.00000  -0.00275  -0.00367  37.67747
   Y358      43.63378   0.00614   0.00000   0.01053   0.00984  43.64362
   Z358      54.55639   0.00069   0.00000   0.00132   0.00126  54.55766
   X359      54.08396  -0.00594   0.00000  -0.00483  -0.00517  54.07880
   Y359      28.32699  -0.01094   0.00000  -0.00589  -0.00677  28.32022
   Z359      37.03863  -0.00495   0.00000  -0.00675  -0.00609  37.03254
   X360      53.25248   0.00133   0.00000   0.00410   0.00383  53.25631
   Y360      29.93326   0.00826   0.00000   0.00680   0.00596  29.93922
   Z360      37.18981   0.00440   0.00000   0.00596   0.00661  37.19642
   X361      55.82251   0.00322   0.00000  -0.00071  -0.00105  55.82146
   Y361      28.68604   0.00395   0.00000   0.00384   0.00285  28.68889
   Z361      37.39768   0.00226   0.00000   0.00163   0.00245  37.40013
   X362      27.53331   0.01021   0.00000   0.01540   0.01460  27.54791
   Y362      42.87789   0.00069   0.00000   0.00406   0.00397  42.88186
   Z362      52.55328   0.02179   0.00000   0.01714   0.01626  52.56954
   X363      26.83411   0.00057   0.00000   0.00246   0.00171  26.83582
   Y363      44.48415   0.00409   0.00000   0.00503   0.00497  44.48912
   Z363      53.02572   0.00048   0.00000   0.00235   0.00147  53.02719
   X364      27.38213  -0.00579   0.00000  -0.00705  -0.00771  27.37442
   Y364      42.82119  -0.00210   0.00000  -0.00432  -0.00432  42.81687
   Z364      50.75804  -0.01361   0.00000  -0.00210  -0.00300  50.75505
   X365      47.29985   0.00627   0.00000   0.01020   0.01008  47.30993
   Y365      24.35857   0.01119   0.00000   0.00769   0.00736  24.36593
   Z365      31.67181   0.00346   0.00000   0.00390   0.00388  31.67569
   X366      49.07619   0.00715   0.00000   0.01236   0.01224  49.08842
   Y366      24.66093  -0.00195   0.00000  -0.00281  -0.00324  24.65768
   Z366      31.89858  -0.00030   0.00000  -0.00054  -0.00041  31.89817
   X367      47.18646  -0.00008   0.00000   0.00048   0.00029  47.18675
   Y367      22.58223  -0.00969   0.00000  -0.00464  -0.00496  22.57727
   Z367      31.36945   0.00264   0.00000   0.00652   0.00642  31.37588
   X368      45.63689   0.00963   0.00000   0.00995   0.00929  45.64618
   Y368      20.08779  -0.01591   0.00000  -0.00627  -0.00666  20.08113
   Z368      35.62134   0.00814   0.00000   0.00622   0.00591  35.62724
   X369      45.01328  -0.00553   0.00000  -0.00181  -0.00240  45.01088
   Y369      21.75075   0.01890   0.00000   0.01306   0.01269  21.76343
   Z369      35.90480   0.00146   0.00000   0.00115   0.00085  35.90565
   X370      45.69358  -0.00577   0.00000  -0.00920  -0.00972  45.68386
   Y370      19.93661  -0.00037   0.00000  -0.00127  -0.00159  19.93502
   Z370      33.82610  -0.00861   0.00000  -0.00476  -0.00507  33.82102
   X371      28.47817  -0.00210   0.00000  -0.00346  -0.00350  28.47467
   Y371      24.43416   0.00960   0.00000   0.00228   0.00296  24.43712
   Z371      30.78364  -0.00500   0.00000  -0.00286  -0.00437  30.77927
   X372      26.85301  -0.00697   0.00000  -0.00583  -0.00595  26.84706
   Y372      24.13180  -0.00251   0.00000  -0.00357  -0.00283  24.12897
   Z372      31.52063   0.00493   0.00000   0.00669   0.00505  31.52568
   X373      29.30965   0.00951   0.00000   0.01023   0.01010  29.31975
   Y373      22.82789  -0.01026   0.00000  -0.00612  -0.00548  22.82241
   Z373      30.82143   0.00045   0.00000   0.00140  -0.00009  30.82134
   X374      32.04976  -0.01086   0.00000  -0.00647  -0.00713  32.04262
   Y374      19.63425  -0.00754   0.00000  -0.00383  -0.00351  19.63075
   Z374      35.39457  -0.00903   0.00000  -0.00267  -0.00407  35.39050
   X375      32.38991   0.00252   0.00000   0.00041  -0.00028  32.38963
   Y375      20.91927   0.01337   0.00000   0.01128   0.01155  20.93081
   Z375      36.62289   0.00879   0.00000   0.00481   0.00348  36.62637
   X376      33.67492   0.00674   0.00000   0.00526   0.00460  33.67952
   Y376      18.95395   0.00064   0.00000   0.00267   0.00292  18.95688
   Z376      34.97883   0.00008   0.00000   0.00169   0.00039  34.97922
   X377      46.35498   0.00448   0.00000   0.00464   0.00630  46.36129
   Y377      50.51238   0.00750   0.00000   0.00618   0.00610  50.51848
   Z377      26.43727  -0.01423   0.00000  -0.01019  -0.00930  26.42796
   X378      46.48726  -0.00435   0.00000  -0.00903  -0.00749  46.47977
   Y378      48.73604  -0.00878   0.00000  -0.00472  -0.00482  48.73121
   Z378      26.79632   0.00203   0.00000  -0.00101  -0.00018  26.79614
   X379      46.22270  -0.00233   0.00000  -0.00415  -0.00258  46.22012
   Y379      51.28717   0.00049   0.00000  -0.00256  -0.00270  51.28447
   Z379      28.06243   0.01135   0.00000   0.00714   0.00804  28.07047
   X380      29.19627   0.01246   0.00000   0.00538   0.00521  29.20148
   Y380      49.60531  -0.00105   0.00000  -0.00008  -0.00012  49.60519
   Z380      49.03839  -0.00447   0.00000  -0.00508  -0.00558  49.03282
   X381      28.02464  -0.00819   0.00000  -0.00599  -0.00613  28.01851
   Y381      48.62265  -0.00825   0.00000  -0.00816  -0.00810  48.61456
   Z381      48.05574  -0.00727   0.00000  -0.00606  -0.00670  48.04904
   X382      28.15692  -0.00786   0.00000  -0.00493  -0.00513  28.15179
   Y382      50.64466   0.00596   0.00000   0.00261   0.00259  50.64725
   Z382      50.07774   0.00779   0.00000   0.00603   0.00549  50.08323
   X383      33.59933  -0.00527   0.00000  -0.00931  -0.00890  33.59043
   Y383      53.83830  -0.00577   0.00000  -0.00312  -0.00322  53.83508
   Z383      44.44636  -0.01195   0.00000  -0.00692  -0.00692  44.43944
   X384      33.22139  -0.00096   0.00000   0.00031   0.00057  33.22195
   Y384      53.42256  -0.00073   0.00000   0.00022   0.00009  53.42264
   Z384      46.16601   0.01221   0.00000   0.00910   0.00906  46.17507
   X385      34.16625   0.00469   0.00000   0.00528   0.00578  34.17203
   Y385      55.55795   0.00520   0.00000   0.00100   0.00087  55.55882
   Z385      44.50305   0.00247   0.00000   0.00244   0.00255  44.50560
         Item               Value     Threshold  Converged?
 Maximum Force            0.037571     0.000450     NO 
 RMS     Force            0.010943     0.000300     NO 
 Maximum Displacement     0.032991     0.001800     NO 
 RMS     Displacement     0.008801     0.001200     NO 
 Predicted change in Energy=-7.671693D-02
 GradGradGradGradGradGradGradGradGradGradGradGradGradGradGradGradGradGrad

 Leave Link  103 at Tue May 15 04:20:57 2018, MaxMem= 14763950080 cpu:      2666.6
 (Enter /cm/shared/gaussian/g09.e01/intel64-sandybridge/g09/l9999.exe)
 1\1\GINC-POPLE04\Force\RPBE1PBE\CC-pVDZ\Br1H256O128(1-)\M.PELUSO\15-Ma
 y-2018\0\\#p PBE1PBE/cc-pvDZ force Counterpoise=2 noSymm\\forces on ch
 loride comput - NWATER: 128\\-1,1\Br,20.,20.,20.\O,22.97,21.27,19.44\H
 ,22.09,21.,19.67\H,22.91,22.21,19.3\O,16.78,20.1,20.8\H,17.73,20.2,20.
 89\H,16.44,20.99,20.87\O,20.05,23.03,21.53\H,20.02,22.12,21.23\H,20.98
 ,23.19,21.7\O,21.08,18.37,17.26\H,20.76,19.07,17.84\H,20.29,18.03,16.8
 4\O,20.8,18.74,23.01\H,20.29,18.9,22.21\H,20.42,19.32,23.66\O,18.21,21
 .86,17.51\H,18.51,21.2,18.13\H,17.5,22.32,17.98\O,16.84,18.01,19.03\H,
 17.02,18.85,19.45\H,16.16,18.2,18.38\O,18.57,17.36,17.\H,18.5,17.75,17
 .87\H,17.73,16.93,16.86\O,22.83,17.4,21.65\H,21.93,17.69,21.77\H,23.2,
 17.4,22.53\O,21.81,16.03,19.41\H,22.39,16.73,19.72\H,20.93,16.37,19.56
 \O,23.07,22.13,22.12\H,23.22,21.85,21.21\H,23.46,21.44,22.65\O,18.53,2
 1.97,23.67\H,18.87,22.48,22.94\H,18.89,22.4,24.45\O,24.45,18.92,19.6\H
 ,24.04,19.78,19.53\H,23.82,18.4,20.11\O,17.81,15.66,20.08\H,17.7,16.59
 ,19.86\H,17.64,15.21,19.26\O,20.51,23.09,16.08\H,19.98,22.43,16.54\H,2
 0.31,22.95,15.16\O,17.08,23.87,20.13\H,18.02,23.9,19.97\H,16.86,24.75,
 20.44\O,17.86,20.59,14.98\H,18.21,20.94,15.79\H,17.53,19.72,15.21\O,19
 .7,16.33,24.12\H,20.27,16.22,24.88\H,20.02,17.12,23.69\O,23.55,17.65,1
 6.41\H,22.75,18.11,16.66\H,23.67,16.99,17.1\O,22.17,24.03,18.02\H,21.6
 4,23.64,17.32\H,21.62,24.73,18.37\O,23.6,21.92,16.24\H,24.09,21.14,16.
 48\H,23.14,22.17,17.04\O,14.48,18.97,21.77\H,14.59,18.17,22.28\H,15.31
 ,19.06,21.3\O,19.22,14.59,21.89\H,18.69,15.11,21.28\H,19.35,15.16,22.6
 5\O,15.62,22.51,23.09\H,16.46,22.11,23.3\H,15.1,22.41,23.88\O,19.34,19
 .55,25.37\H,19.34,19.38,26.32\H,18.45,19.34,25.09\O,20.06,15.6,15.59\H
 ,19.7,16.3,16.13\H,19.3,15.08,15.34\O,16.96,16.05,23.15\H,17.89,16.07,
 23.39\H,16.96,15.89,22.21\O,14.58,22.91,20.63\H,15.04,22.67,21.43\H,15
 .19,23.5,20.18\O,21.47,14.,17.49\H,21.25,14.35,16.63\H,21.63,14.77,18.
 03\O,22.9,19.66,26.12\H,23.59,20.32,26.18\H,22.42,19.87,25.32\O,25.17,
 19.76,16.93\H,24.64,19.07,16.54\H,25.4,19.44,17.79\O,14.87,18.88,17.35
 \H,14.43,18.36,16.67\H,14.16,19.31,17.82\O,20.18,22.18,26.11\H,20.28,2
 2.09,27.06\H,19.97,21.29,25.81\O,24.73,20.34,23.6\H,25.16,19.8,24.26\H
 ,25.44,20.6,23.01\O,25.04,23.89,22.76\H,25.77,23.84,22.14\H,24.43,23.2
 2,22.46\O,19.99,25.94,18.56\H,19.26,25.91,17.95\H,19.58,26.03,19.42\O,
 26.43,17.1,19.22\H,25.64,17.58,19.46\H,26.11,16.24,18.93\O,15.81,23.27
 ,16.88\H,15.39,22.68,16.25\H,15.23,23.27,17.64\O,18.59,26.32,20.73\H,1
 8.6,27.23,21.02\H,18.6,25.81,21.53\O,16.96,24.62,24.15\H,16.86,23.69,2
 3.96\H,16.31,25.06,23.6\O,13.17,20.1,19.23\H,13.75,20.78,19.56\H,12.63
 ,19.86,19.98\O,22.88,23.24,25.32\H,22.09,22.69,25.32\H,22.61,24.04,24.
 86\O,13.56,16.78,19.73\H,12.85,17.3,20.09\H,14.25,17.42,19.53\O,17.25,
 25.53,17.14\H,16.96,25.51,18.05\H,16.99,24.68,16.79\O,22.33,17.95,13.6
 3\H,23.11,18.02,13.08\H,22.67,17.84,14.52\O,26.78,20.4,21.64\H,27.73,2
 0.29,21.67\H,26.52,20.03,20.8\O,14.71,17.15,23.86\H,14.85,17.91,24.43\
 H,15.59,16.8,23.71\O,23.92,13.63,19.98\H,23.13,14.17,20.02\H,24.37,13.
 8,20.81\O,24.44,15.49,17.81\H,24.8,14.84,17.21\H,24.14,14.97,18.57\O,2
 4.54,16.33,23.73\H,25.45,16.15,23.95\H,24.38,15.83,22.93\O,16.81,14.5,
 17.79\H,15.92,14.78,17.56\H,16.83,13.57,17.57\O,22.25,26.35,16.41\H,21
 .36,26.31,16.05\H,22.37,25.5,16.84\O,15.01,21.48,15.02\H,15.86,21.14,1
 4.76\H,14.41,20.75,14.91\O,24.34,20.17,13.69\H,24.5,20.97,13.2\H,23.98
 ,20.47,14.53\O,19.26,26.18,23.32\H,18.67,25.61,23.81\H,18.92,27.06,23.
 48\O,17.05,12.88,20.44\H,16.21,13.34,20.49\H,17.69,13.53,20.75\O,21.73
 ,25.59,24.29\H,22.21,26.01,23.58\H,20.82,25.58,24.\O,19.94,23.22,13.42
 \H,19.92,23.43,12.49\H,19.07,23.43,13.74\O,18.41,20.25,12.01\H,18.45,2
 0.17,12.97\H,17.9,21.05,11.87\O,23.32,16.98,26.02\H,23.81,16.82,25.22\
 H,23.29,17.94,26.1\O,17.65,24.53,13.97\H,16.98,24.92,13.42\H,17.18,24.
 25,14.76\O,20.92,12.36,22.94\H,20.64,13.11,22.41\H,21.86,12.51,23.06\O
 ,24.69,23.76,14.2\H,24.14,23.54,13.45\H,24.2,23.43,14.96\O,19.7,12.1,1
 8.23\H,19.5,12.26,19.15\H,20.14,12.89,17.94\O,19.67,24.94,26.34\H,18.7
 5,24.76,26.54\H,20.06,24.08,26.23\O,14.83,14.29,20.72\H,14.34,14.28,21
 .55\H,14.43,15.,20.22\O,28.01,19.19,18.58\H,28.75,18.67,18.28\H,27.27,
 18.59,18.57\O,25.71,25.75,19.52\H,25.15,25.53,20.26\H,25.15,26.26,18.9
 3\O,21.,16.06,26.61\H,21.22,15.17,26.9\H,21.85,16.46,26.43\O,19.93,28.
 57,19.82\H,20.1,27.63,19.75\H,19.76,28.85,18.91\O,27.32,20.18,15.51\H,
 27.78,20.85,16.01\H,26.44,20.15,15.89\O,27.88,17.27,21.6\H,27.17,17.38
 ,20.98\H,28.07,18.16,21.91\O,21.14,19.9,11.98\H,20.28,20.19,12.3\H,21.
 23,19.,12.3\O,15.46,15.47,15.21\H,15.38,14.55,15.43\H,16.35,15.56,14.8
 6\O,15.76,26.07,22.21\H,15.56,26.18,21.28\H,15.49,26.89,22.61\O,12.15,
 22.88,22.23\H,13.01,22.89,21.79\H,11.58,22.4,21.63\O,23.19,26.82,21.99
 \H,24.04,27.25,21.92\H,22.57,27.48,21.68\O,25.04,21.96,26.59\H,24.31,2
 2.36,26.11\H,25.82,22.24,26.11\O,15.46,20.05,26.49\H,15.74,20.3,27.37\
 H,15.5,19.1,26.49\O,15.9,17.15,26.67\H,15.59,16.66,27.43\H,16.73,16.74
 ,26.44\O,13.41,17.27,15.76\H,12.86,16.52,15.97\H,14.25,16.89,15.51\O,2
 6.84,22.79,24.7\H,26.38,22.89,23.87\H,27.01,23.69,24.98\O,27.18,24.01,
 21.\H,26.78,24.32,20.19\H,27.75,24.73,21.28\O,22.38,24.05,12.72\H,21.5
 2,23.78,13.06\H,22.18,24.76,12.1\O,17.6,21.06,28.52\H,18.24,20.62,29.0
 8\H,18.08,21.26,27.72\O,19.64,18.98,27.99\H,19.26,18.96,28.87\H,20.58,
 18.87,28.12\O,13.76,21.91,25.43\H,14.14,21.03,25.49\H,12.81,21.76,25.4
 1\O,24.68,25.74,25.07\H,23.91,25.64,25.64\H,24.55,25.08,24.39\O,21.44,
 15.24,12.83\H,20.86,14.98,13.54\H,21.85,16.05,13.14\O,28.41,21.98,19.1
 3\H,28.61,21.06,19.26\H,27.83,22.2,19.86\O,20.03,26.35,14.52\H,19.23,2
 5.84,14.38\H,19.85,27.2,14.12\O,17.92,14.18,14.66\H,17.96,13.32,15.08\
 H,17.84,13.99,13.73\O,14.53,26.11,19.71\H,13.79,26.15,20.3\H,14.32,26.
 72,19.01\O,18.49,16.36,27.45\H,18.88,16.88,28.15\H,19.21,15.85,27.09\O
 ,24.76,13.69,22.38\H,24.58,12.97,22.99\H,25.53,13.4,21.89\O,24.57,15.8
 2,13.66\H,25.03,16.6,13.37\H,24.67,15.82,14.61\O,24.72,26.84,17.33\H,2
 3.8,26.81,17.07\H,25.11,26.08,16.9\O,13.56,19.45,14.05\H,13.57,18.75,1
 4.69\H,12.93,19.18,13.39\O,22.81,12.32,15.45\H,23.7,12.64,15.59\H,22.2
 5,13.,15.81\O,13.37,24.27,24.46\H,13.41,23.96,23.56\H,13.31,23.47,24.9
 9\O,26.43,18.92,25.43\H,27.26,19.37,25.6\H,26.69,18.03,25.16\O,24.52,1
 4.04,25.43\H,24.22,13.23,25.01\H,23.77,14.63,25.39\O,22.67,25.51,27.13
 \H,22.05,26.05,27.62\H,22.15,25.13,26.42\O,14.88,14.11,25.18\H,14.41,1
 3.68,24.47\H,15.08,14.99,24.84\O,18.31,11.62,23.14\H,19.05,11.94,22.63
 \H,17.72,11.23,22.49\O,25.86,18.05,13.26\H,25.23,18.76,13.35\H,26.71,1
 8.47,13.39\O,10.77,20.02,21.5\H,11.58,19.8,21.96\H,10.07,19.85,22.14\O
 ,11.96,14.76,18.87\H,11.22,14.93,19.44\H,12.59,15.46,19.06\O,23.28,21.
 6,11.54\H,23.08,22.52,11.69\H,22.46,21.14,11.69\O,17.46,13.23,25.5\H,1
 6.74,13.83,25.28\H,17.56,12.68,24.72\O,28.05,23.05,16.76\H,28.,22.72,1
 7.66\H,27.29,23.63,16.67\O,16.52,28.19,16.12\H,16.56,27.24,16.26\H,16.
 57,28.3,15.17\O,26.34,25.1,15.85\H,26.83,25.74,15.33\H,25.92,24.54,15.
 19\O,12.11,16.17,24.46\H,12.36,16.12,25.38\H,12.91,16.46,24.02\O,20.29
 ,27.87,25.69\H,20.12,26.94,25.56\H,21.06,28.05,25.15\O,14.21,23.14,13.
 05\H,14.33,22.34,12.53\H,14.11,22.82,13.95\O,18.08,11.76,16.01\H,18.55
 ,11.79,16.85\H,18.55,11.09,15.5\O,17.11,24.44,27.46\H,16.6,24.84,26.76
 \H,16.69,23.59,27.61\O,20.71,22.56,28.64\H,21.39,22.85,29.25\H,19.94,2
 3.09,28.87\O,28.62,14.99,19.6\H,28.18,15.84,19.68\H,29.54,15.18,19.79\
 O,14.57,22.69,27.81\H,14.2,23.54,28.06\H,14.49,22.66,26.86\O,25.03,12.
 89,16.76\H,25.97,13.05,16.88\H,24.97,11.95,16.6\O,24.15,10.63,18.85\H,
 23.82,11.51,19.\H,24.18,10.55,17.9\O,15.07,12.93,16.29\H,14.21,12.77,1
 6.68\H,15.51,12.08,16.31\O,16.96,10.39,18.73\H,17.14,11.07,19.38\H,17.
 82,10.03,18.51\O,24.53,26.73,13.99\H,24.6,25.79,14.18\H,24.46,27.14,14
 .85\O,15.45,26.25,25.95\H,14.83,25.73,25.43\H,14.9,26.8,26.5\O,17.78,2
 8.49,23.52\H,17.58,28.27,24.43\H,18.08,29.4,23.55\\Version=ES64L-G09Re
 vE.01\HF=-9773.4021231\RMSD=2.103e-09\RMSF=1.094e-02\Dipole=-13.990281
 2,1.0163085,6.3369072\Quadrupole=-829.6986874,227.9838448,601.7148426,
 -2032.1606771,-1625.7390206,-1185.06778\PG=C01 [X(Br1H256O128)]\\@


 GOD DOES NOT PLAY WITH DICE.
               -- A. EINSTEIN
 Job cpu time:       6 days 15 hours 16 minutes 28.1 seconds.
 File lengths (MBytes):  RWF=   7285 Int=      0 D2E=      0 Chk=   2411 Scr=      1
 Normal termination of Gaussian 09 at Tue May 15 04:21:21 2018.
