 Entering Gaussian System, Link 0=/cm/shared/gaussian/g09.e01/intel64-sandybridge/g09/g09
 Initial command:
 /cm/shared/gaussian/g09.e01/intel64-sandybridge/g09/l1.exe "/local/scratch/m.peluso/128_wat/370/Gau-26922.inp" -scrdir="/local/scratch/m.peluso/128_wat/370/"
 Entering Link 1 = /cm/shared/gaussian/g09.e01/intel64-sandybridge/g09/l1.exe PID=     26923.
  
 Copyright (c) 1988,1990,1992,1993,1995,1998,2003,2009,2015,
            Gaussian, Inc.  All Rights Reserved.
  
 This is part of the Gaussian(R) 09 program.  It is based on
 the Gaussian(R) 03 system (copyright 2003, Gaussian, Inc.),
 the Gaussian(R) 98 system (copyright 1998, Gaussian, Inc.),
 the Gaussian(R) 94 system (copyright 1995, Gaussian, Inc.),
 the Gaussian 92(TM) system (copyright 1992, Gaussian, Inc.),
 the Gaussian 90(TM) system (copyright 1990, Gaussian, Inc.),
 the Gaussian 88(TM) system (copyright 1988, Gaussian, Inc.),
 the Gaussian 86(TM) system (copyright 1986, Carnegie Mellon
 University), and the Gaussian 82(TM) system (copyright 1983,
 Carnegie Mellon University). Gaussian is a federally registered
 trademark of Gaussian, Inc.
  
 This software contains proprietary and confidential information,
 including trade secrets, belonging to Gaussian, Inc.
  
 This software is provided under written license and may be
 used, copied, transmitted, or stored only in accord with that
 written license.
  
 The following legend is applicable only to US Government
 contracts under FAR:
  
                    RESTRICTED RIGHTS LEGEND
  
 Use, reproduction and disclosure by the US Government is
 subject to restrictions as set forth in subparagraphs (a)
 and (c) of the Commercial Computer Software - Restricted
 Rights clause in FAR 52.227-19.
  
 Gaussian, Inc.
 340 Quinnipiac St., Bldg. 40, Wallingford CT 06492
  
  
 ---------------------------------------------------------------
 Warning -- This program may not be used in any manner that
 competes with the business of Gaussian, Inc. or will provide
 assistance to any competitor of Gaussian, Inc.  The licensee
 of this program is prohibited from giving any competitor of
 Gaussian, Inc. access to this program.  By using this program,
 the user acknowledges that Gaussian, Inc. is engaged in the
 business of creating and licensing software in the field of
 computational chemistry and represents and warrants to the
 licensee that it is not a competitor of Gaussian, Inc. and that
 it will not use this program in any manner prohibited above.
 ---------------------------------------------------------------
  

 Cite this work as:
 Gaussian 09, Revision E.01,
 M. J. Frisch, G. W. Trucks, H. B. Schlegel, G. E. Scuseria, 
 M. A. Robb, J. R. Cheeseman, G. Scalmani, V. Barone, B. Mennucci, 
 G. A. Petersson, H. Nakatsuji, M. Caricato, X. Li, H. P. Hratchian, 
 A. F. Izmaylov, J. Bloino, G. Zheng, J. L. Sonnenberg, M. Hada, 
 M. Ehara, K. Toyota, R. Fukuda, J. Hasegawa, M. Ishida, T. Nakajima, 
 Y. Honda, O. Kitao, H. Nakai, T. Vreven, J. A. Montgomery, Jr., 
 J. E. Peralta, F. Ogliaro, M. Bearpark, J. J. Heyd, E. Brothers, 
 K. N. Kudin, V. N. Staroverov, T. Keith, R. Kobayashi, J. Normand, 
 K. Raghavachari, A. Rendell, J. C. Burant, S. S. Iyengar, J. Tomasi, 
 M. Cossi, N. Rega, J. M. Millam, M. Klene, J. E. Knox, J. B. Cross, 
 V. Bakken, C. Adamo, J. Jaramillo, R. Gomperts, R. E. Stratmann, 
 O. Yazyev, A. J. Austin, R. Cammi, C. Pomelli, J. W. Ochterski, 
 R. L. Martin, K. Morokuma, V. G. Zakrzewski, G. A. Voth, 
 P. Salvador, J. J. Dannenberg, S. Dapprich, A. D. Daniels, 
 O. Farkas, J. B. Foresman, J. V. Ortiz, J. Cioslowski, 
 and D. J. Fox, Gaussian, Inc., Wallingford CT, 2013.
 
 ******************************************
 Gaussian 09:  ES64L-G09RevE.01 30-Nov-2015
                 5-May-2018 
 ******************************************
 %Mem=110GB
 %NProcShared=64
 Will use up to   64 processors via shared memory.
 %chk=snap66.chk
 ----------------------------------------------
 #p PBE1PBE/cc-pvDZ force Counterpoise=2 noSymm
 ----------------------------------------------
 1/10=7,30=1,38=1,62=2/1,3;
 2/12=2,15=1,17=6,18=5,40=1/2;
 1/10=7,30=1,38=1,53=2,62=2,63=101/22;
 3/5=16,11=2,16=1,25=1,30=1,71=1,74=-13/1,2,3;
 4//1;
 5/5=2,38=5/2;
 6/7=2,8=2,9=2,10=2,28=1/1;
 7/7=1,29=1,30=1,33=-1/1,2,3,16;
 1/10=7,30=1,53=2,62=2,63=101/22;
 3/5=7,6=11,11=2,16=1,25=1,30=1,71=1,74=-13,82=7/1,2,3;
 4//1;
 5/5=2,38=5/2;
 6/7=2,8=2,9=2,10=2,28=1/1;
 7/7=1,29=1,30=1,33=-1/1,2,3,16;
 1/10=7,30=1,53=2,62=2,63=101/22(-5);
 7/9=1,29=1,44=-1/16;
 1/10=7,30=1,62=2/3;
 99//99;
 Leave Link    1 at Sat May  5 14:49:22 2018, MaxMem= 14763950080 cpu:         8.9
 (Enter /cm/shared/gaussian/g09.e01/intel64-sandybridge/g09/l101.exe)
 ---------------------------------------
 forces on chloride comput - NWATER: 128
 ---------------------------------------
 Symbolic Z-matrix:
 Charge = -1 Multiplicity = 1 in supermolecule
 Charge = -1 Multiplicity = 1 in fragment      1.
 Charge =  0 Multiplicity = 1 in fragment      2.
 Br(Fragment=1)        20.       20.       20. 
 O(Fragment=2)         22.95     20.03     19.04 
 H(Fragment=2)         22.02     19.9      19.22 
 H(Fragment=2)         23.39     19.8      19.85 
 O(Fragment=2)         19.08     18.18     22.35 
 H(Fragment=2)         19.48     18.59     21.58 
 H(Fragment=2)         19.45     18.65     23.1 
 O(Fragment=2)         21.16     17.08     19.51 
 H(Fragment=2)         21.07     18.04     19.49 
 H(Fragment=2)         21.71     16.88     18.75 
 O(Fragment=2)         17.98     21.49     17.77 
 H(Fragment=2)         18.46     21.79     17. 
 H(Fragment=2)         18.65     21.1      18.33 
 O(Fragment=2)         16.83     20.81     21.09 
 H(Fragment=2)         16.62     19.89     21.24 
 H(Fragment=2)         17.54     20.8      20.45 
 O(Fragment=2)         21.86     22.57     21.97 
 H(Fragment=2)         22.48     21.86     22.13 
 H(Fragment=2)         21.39     22.29     21.17 
 O(Fragment=2)         18.47     16.73     20.09 
 H(Fragment=2)         18.54     17.08     20.98 
 H(Fragment=2)         19.35     16.85     19.72 
 O(Fragment=2)         21.91     19.99     16.53 
 H(Fragment=2)         21.61     19.11     16.3 
 H(Fragment=2)         22.05     19.96     17.48 
 O(Fragment=2)         22.17     22.86     18.19 
 H(Fragment=2)         22.88     23.18     17.63 
 H(Fragment=2)         22.53     22.07     18.6 
 O(Fragment=2)         18.18     23.78     20.64 
 H(Fragment=2)         18.59     23.99     19.8 
 H(Fragment=2)         17.6      23.05     20.45 
 O(Fragment=2)         16.61     17.08     18.43 
 H(Fragment=2)         17.13     17.63     17.83 
 H(Fragment=2)         17.12     17.07     19.24 
 O(Fragment=2)         19.38     23.43     23.07 
 H(Fragment=2)         20.24     23.15     22.75 
 H(Fragment=2)         18.83     23.43     22.28 
 O(Fragment=2)         19.71     21.16     15.52 
 H(Fragment=2)         19.53     20.94     14.61 
 H(Fragment=2)         20.47     20.63     15.75 
 O(Fragment=2)         15.19     20.8      18.07 
 H(Fragment=2)         15.28     20.28     17.27 
 H(Fragment=2)         16.04     21.24     18.16 
 O(Fragment=2)         24.18     20.58     21.97 
 H(Fragment=2)         24.03     19.78     22.48 
 H(Fragment=2)         25.01     20.92     22.3 
 O(Fragment=2)         20.29     17.96     15.54 
 H(Fragment=2)         20.32     17.01     15.5 
 H(Fragment=2)         19.36     18.17     15.7 
 O(Fragment=2)         15.08     22.76     19.92 
 H(Fragment=2)         15.5      21.91     20.07 
 H(Fragment=2)         14.36     22.58     19.33 
 O(Fragment=2)         17.45     18.34     16.12 
 H(Fragment=2)         17.1      17.77     15.44 
 H(Fragment=2)         17.39     19.22     15.74 
 O(Fragment=2)         25.59     21.57     19.63 
 H(Fragment=2)         24.83     21.23     20.1 
 H(Fragment=2)         25.3      22.4      19.26 
 O(Fragment=2)         23.02     16.76     17.64 
 H(Fragment=2)         23.02     16.54     16.71 
 H(Fragment=2)         23.92     17.05     17.82 
 O(Fragment=2)         25.39     18.43     18.14 
 H(Fragment=2)         26.03     17.93     18.65 
 H(Fragment=2)         24.62     18.48     18.71 
 O(Fragment=2)         22.95     25.1      20.54 
 H(Fragment=2)         22.1      24.65     20.51 
 H(Fragment=2)         23.41     24.81     19.75 
 O(Fragment=2)         18.5      14.38     17.98 
 H(Fragment=2)         18.75     13.87     18.76 
 H(Fragment=2)         18.41     15.27     18.31 
 O(Fragment=2)         15.25     22.32     23.25 
 H(Fragment=2)         16.1      22.13     22.85 
 H(Fragment=2)         15.28     23.26     23.42 
 O(Fragment=2)         19.28     19.32     25.4 
 H(Fragment=2)         18.84     20.14     25.19 
 H(Fragment=2)         19.16     19.21     26.34 
 O(Fragment=2)         17.88     21.53     25.3 
 H(Fragment=2)         18.24     22.06     24.59 
 H(Fragment=2)         17.92     22.09     26.07 
 O(Fragment=2)         19.49     14.19     22.04 
 H(Fragment=2)         19.56     15.13     22.21 
 H(Fragment=2)         19.74     13.78     22.87 
 O(Fragment=2)         14.03     18.86     19.87 
 H(Fragment=2)         14.7      19.37     19.43 
 H(Fragment=2)         14.08     17.99     19.47 
 O(Fragment=2)         21.3      14.13     19.65 
 H(Fragment=2)         20.47     14.39     20.06 
 H(Fragment=2)         21.79     14.94     19.55 
 O(Fragment=2)         21.47     21.21     25.49 
 H(Fragment=2)         20.98     20.41     25.3 
 H(Fragment=2)         20.92     21.92     25.16 
 O(Fragment=2)         18.8      15.85     24.79 
 H(Fragment=2)         18.71     16.65     24.27 
 H(Fragment=2)         18.06     15.86     25.39 
 O(Fragment=2)         21.41     17.3      25.46 
 H(Fragment=2)         21.7      16.88     24.65 
 H(Fragment=2)         21.03     18.13     25.17 
 O(Fragment=2)         20.87     23.55     15.01 
 H(Fragment=2)         20.4      22.72     15.1 
 H(Fragment=2)         21.17     23.75     15.9 
 O(Fragment=2)         24.17     15.18     20.94 
 H(Fragment=2)         24.       16.04     20.56 
 H(Fragment=2)         25.07     14.98     20.7 
 O(Fragment=2)         24.27     18.67     15.66 
 H(Fragment=2)         24.83     18.85     16.42 
 H(Fragment=2)         23.6      19.35     15.68 
 O(Fragment=2)         14.4      19.67     22.56 
 H(Fragment=2)         14.26     19.26     21.71 
 H(Fragment=2)         14.81     20.51     22.36 
 O(Fragment=2)         19.14     26.54     21.02 
 H(Fragment=2)         19.05     25.62     20.75 
 H(Fragment=2)         19.71     26.92     20.35 
 O(Fragment=2)         14.73     18.41     16.46 
 H(Fragment=2)         14.3      17.55     16.39 
 H(Fragment=2)         15.65     18.2      16.6 
 O(Fragment=2)         23.31     24.35     23.89 
 H(Fragment=2)         23.74     23.65     24.38 
 H(Fragment=2)         23.02     23.93     23.08 
 O(Fragment=2)         20.37     25.57     17.4 
 H(Fragment=2)         19.46     25.61     17.1 
 H(Fragment=2)         20.44     26.28     18.03 
 O(Fragment=2)         16.72     14.79     22.43 
 H(Fragment=2)         16.52     15.46     23.08 
 H(Fragment=2)         17.68     14.79     22.37 
 O(Fragment=2)         23.1      16.04     23.6 
 H(Fragment=2)         23.74     15.68     22.97 
 H(Fragment=2)         22.77     15.27     24.07 
 O(Fragment=2)         24.44     18.49     24.59 
 H(Fragment=2)         23.73     17.85     24.49 
 H(Fragment=2)         25.18     17.99     24.91 
 O(Fragment=2)         16.8      20.66     14.59 
 H(Fragment=2)         16.76     21.56     14.92 
 H(Fragment=2)         16.08     20.6      13.96 
 O(Fragment=2)         24.55     22.79     16.59 
 H(Fragment=2)         23.88     22.69     15.91 
 H(Fragment=2)         25.1      22.02     16.49 
 O(Fragment=2)         15.62     17.12     23.64 
 H(Fragment=2)         15.09     17.79     23.21 
 H(Fragment=2)         16.       17.56     24.4 
 O(Fragment=2)         24.31     21.85     24.97 
 H(Fragment=2)         24.89     21.44     25.61 
 H(Fragment=2)         23.47     21.41     25.08 
 O(Fragment=2)         15.33     25.46     19.94 
 H(Fragment=2)         14.56     25.62     19.39 
 H(Fragment=2)         15.55     24.54     19.79 
 O(Fragment=2)         14.57     15.35     18.41 
 H(Fragment=2)         14.37     15.34     19.35 
 H(Fragment=2)         15.36     15.89     18.34 
 O(Fragment=2)         26.16     18.38     20.96 
 H(Fragment=2)         26.58     17.77     21.56 
 H(Fragment=2)         26.82     19.05     20.79 
 O(Fragment=2)         19.88     15.33     15.43 
 H(Fragment=2)         19.05     14.93     15.66 
 H(Fragment=2)         20.51     14.93     16.03 
 O(Fragment=2)         16.31     25.06     22.9 
 H(Fragment=2)         17.26     25.19     22.89 
 H(Fragment=2)         16.02     25.38     22.04 
 O(Fragment=2)         17.8      26.24     18.57 
 H(Fragment=2)         17.37     25.64     17.96 
 H(Fragment=2)         17.26     26.21     19.36 
 O(Fragment=2)         21.28     19.73     13.24 
 H(Fragment=2)         21.9      19.55     12.54 
 H(Fragment=2)         21.11     18.88     13.64 
 O(Fragment=2)         20.66     24.67     25.31 
 H(Fragment=2)         19.96     24.61     24.66 
 H(Fragment=2)         21.47     24.58     24.81 
 O(Fragment=2)         23.15     22.1      14.29 
 H(Fragment=2)         22.6      22.86     14.45 
 H(Fragment=2)         22.54     21.39     14.09 
 O(Fragment=2)         18.45     24.71     15.32 
 H(Fragment=2)         19.39     24.52     15.25 
 H(Fragment=2)         18.06     24.26     14.57 
 O(Fragment=2)         16.38     24.74     16.68 
 H(Fragment=2)         17.24     24.76     16.26 
 H(Fragment=2)         15.8      24.35     16.03 
 O(Fragment=2)         23.45     25.66     17.35 
 H(Fragment=2)         23.81     25.79     16.48 
 H(Fragment=2)         22.5      25.65     17.22 
 O(Fragment=2)         25.2      24.4      18.99 
 H(Fragment=2)         24.6      24.81     18.37 
 H(Fragment=2)         25.91     25.03     19.1 
 O(Fragment=2)         21.68     13.94     16.82 
 H(Fragment=2)         21.72     13.13     16.31 
 H(Fragment=2)         21.33     13.67     17.67 
 O(Fragment=2)         26.64     21.02     16.8 
 H(Fragment=2)         26.48     20.71     17.69 
 H(Fragment=2)         27.39     20.52     16.5 
 O(Fragment=2)         16.04     19.96     26.65 
 H(Fragment=2)         16.22     20.2      27.55 
 H(Fragment=2)         16.72     20.4      26.14 
 O(Fragment=2)         12.5      21.54     18.47 
 H(Fragment=2)         13.29     21.19     18.05 
 H(Fragment=2)         12.12     20.8      18.93 
 O(Fragment=2)         18.46     12.24     20.65 
 H(Fragment=2)         18.81     13.07     20.96 
 H(Fragment=2)         19.22     11.79     20.26 
 O(Fragment=2)         26.24     22.2      23.28 
 H(Fragment=2)         27.01     22.6      23.67 
 H(Fragment=2)         25.57     22.23     23.96 
 O(Fragment=2)         27.91     20.75     20.64 
 H(Fragment=2)         28.54     21.4      20.97 
 H(Fragment=2)         27.11     21.24     20.5 
 O(Fragment=2)         21.28     27.36     19.29 
 H(Fragment=2)         21.95     27.13     19.94 
 H(Fragment=2)         21.6      28.16     18.88 
 O(Fragment=2)         14.22     15.28     21.02 
 H(Fragment=2)         14.12     15.86     21.78 
 H(Fragment=2)         14.76     14.56     21.34 
 O(Fragment=2)         16.3      16.57     14.36 
 H(Fragment=2)         15.38     16.32     14.29 
 H(Fragment=2)         16.55     16.81     13.46 
 O(Fragment=2)         14.95     22.9      15.16 
 H(Fragment=2)         14.29     22.25     15.41 
 H(Fragment=2)         14.62     23.28     14.35 
 O(Fragment=2)         24.75     14.27     16.53 
 H(Fragment=2)         23.8      14.38     16.59 
 H(Fragment=2)         24.86     13.56     15.9 
 O(Fragment=2)         26.22     16.72     15.35 
 H(Fragment=2)         25.76     15.95     15.68 
 H(Fragment=2)         25.62     17.45     15.52 
 O(Fragment=2)         13.28     20.78     15.63 
 H(Fragment=2)         13.77     19.96     15.6 
 H(Fragment=2)         12.37     20.5      15.79 
 O(Fragment=2)         19.65     27.15     23.56 
 H(Fragment=2)         18.88     27.57     23.93 
 H(Fragment=2)         19.52     27.18     22.62 
 O(Fragment=2)         11.35     19.18     20.11 
 H(Fragment=2)         12.3      19.06     20.05 
 H(Fragment=2)         11.22     19.68     20.91 
 O(Fragment=2)         21.59     17.71     28.14 
 H(Fragment=2)         21.45     17.53     27.21 
 H(Fragment=2)         22.45     17.33     28.33 
 O(Fragment=2)         24.81     27.15     21.48 
 H(Fragment=2)         24.18     26.49     21.18 
 H(Fragment=2)         25.07     26.86     22.35 
 O(Fragment=2)         26.34     15.59     18.57 
 H(Fragment=2)         25.89     14.9      18.09 
 H(Fragment=2)         27.24     15.57     18.23 
 O(Fragment=2)         17.21     12.23     16.65 
 H(Fragment=2)         17.46     13.02     17.13 
 H(Fragment=2)         17.22     12.49     15.73 
 O(Fragment=2)         27.77     19.5      24.36 
 H(Fragment=2)         28.35     19.51     23.6 
 H(Fragment=2)         26.9      19.66     24. 
 O(Fragment=2)         21.46     13.43     24.31 
 H(Fragment=2)         21.69     12.51     24.33 
 H(Fragment=2)         21.4      13.68     25.24 
 O(Fragment=2)         23.42     12.18     21.54 
 H(Fragment=2)         22.59     12.06     21.08 
 H(Fragment=2)         23.3      12.99     22.04 
 O(Fragment=2)         21.64     23.01     28.23 
 H(Fragment=2)         21.76     22.67     27.35 
 H(Fragment=2)         21.33     23.91     28.11 
 O(Fragment=2)         18.29     24.03     12.7 
 H(Fragment=2)         19.14     23.62     12.86 
 H(Fragment=2)         18.46     24.97     12.76 
 O(Fragment=2)         19.7      14.96     12.55 
 H(Fragment=2)         19.55     14.05     12.81 
 H(Fragment=2)         19.87     15.42     13.37 
 O(Fragment=2)         27.09     23.94     16.34 
 H(Fragment=2)         26.51     23.19     16.45 
 H(Fragment=2)         27.83     23.76     16.92 
 O(Fragment=2)         24.05     12.06     18.68 
 H(Fragment=2)         23.3      11.55     18.39 
 H(Fragment=2)         23.67     12.84     19.1 
 O(Fragment=2)         13.65     21.16     25.59 
 H(Fragment=2)         14.44     20.74     25.94 
 H(Fragment=2)         13.44     20.66     24.8 
 O(Fragment=2)         24.84     18.76     27.59 
 H(Fragment=2)         24.9      17.81     27.49 
 H(Fragment=2)         24.19     19.03     26.94 
 O(Fragment=2)         17.46     28.37     22.22 
 H(Fragment=2)         16.55     28.28     21.92 
 H(Fragment=2)         17.94     27.72     21.71 
 O(Fragment=2)         22.48     27.35     23.86 
 H(Fragment=2)         22.76     26.52     24.23 
 H(Fragment=2)         21.54     27.24     23.71 
 O(Fragment=2)         15.07     12.79     22.2 
 H(Fragment=2)         15.31     12.29     21.42 
 H(Fragment=2)         15.86     13.28     22.42 
 O(Fragment=2)         12.62     23.97     17.3 
 H(Fragment=2)         12.45     23.03     17.39 
 H(Fragment=2)         13.48     24.02     16.89 
 O(Fragment=2)         17.06     13.77     14.29 
 H(Fragment=2)         16.6      13.54     13.48 
 H(Fragment=2)         16.93     14.71     14.38 
 O(Fragment=2)         11.29     20.64     22.42 
 H(Fragment=2)         12.12     21.13     22.43 
 H(Fragment=2)         11.37     20.04     23.16 
 O(Fragment=2)         27.09     16.88     23.11 
 H(Fragment=2)         26.76     15.98     23.06 
 H(Fragment=2)         26.95     17.14     24.02 
 O(Fragment=2)         17.59     22.9      27.47 
 H(Fragment=2)         16.68     23.2      27.42 
 H(Fragment=2)         17.64     22.42     28.3 
 O(Fragment=2)         24.59     27.92     18.78 
 H(Fragment=2)         25.05     27.69     19.58 
 H(Fragment=2)         24.22     27.1      18.47 
 O(Fragment=2)         19.08     18.98     28.45 
 H(Fragment=2)         19.96     18.73     28.74 
 H(Fragment=2)         18.54     18.22     28.67 
 O(Fragment=2)         26.38     21.47     14.01 
 H(Fragment=2)         26.73     22.35     13.93 
 H(Fragment=2)         26.75     21.13     14.83 
 O(Fragment=2)         24.24     16.58     12.84 
 H(Fragment=2)         24.86     16.57     12.11 
 H(Fragment=2)         24.77     16.79     13.61 
 O(Fragment=2)         14.92     17.44     26.88 
 H(Fragment=2)         14.88     18.38     26.73 
 H(Fragment=2)         14.14     17.1      26.45 
 O(Fragment=2)         19.67     14.32     27.62 
 H(Fragment=2)         20.58     14.6      27.74 
 H(Fragment=2)         19.38     14.77     26.82 
 O(Fragment=2)         11.34     23.87     19.88 
 H(Fragment=2)         11.64     24.77     19.76 
 H(Fragment=2)         12.03     23.34     19.47 
 O(Fragment=2)         17.66     28.94     17.42 
 H(Fragment=2)         17.75     28.07     17.81 
 H(Fragment=2)         17.65     28.78     16.48 
 O(Fragment=2)         28.89     18.22     19.43 
 H(Fragment=2)         28.8      17.76     18.6 
 H(Fragment=2)         28.59     19.11     19.25 
 O(Fragment=2)         12.93     16.17     16.22 
 H(Fragment=2)         13.17     15.54     16.9 
 H(Fragment=2)         13.24     15.77     15.4 
 O(Fragment=2)         21.13     10.99     21.35 
 H(Fragment=2)         21.       10.07     21.61 
 H(Fragment=2)         20.73     11.49     22.06 
 O(Fragment=2)         24.9      19.88     12.15 
 H(Fragment=2)         24.95     20.63     12.74 
 H(Fragment=2)         25.81     19.75     11.87 
 O(Fragment=2)         16.59     15.11     26.81 
 H(Fragment=2)         16.01     15.86     26.68 
 H(Fragment=2)         16.9      15.2      27.71 
 O(Fragment=2)         15.14     23.67     27.23 
 H(Fragment=2)         15.06     23.76     26.28 
 H(Fragment=2)         14.31     23.98     27.58 
 O(Fragment=2)         25.83     14.58     23.94 
 H(Fragment=2)         25.76     13.64     23.83 
 H(Fragment=2)         26.25     14.69     24.8 
 O(Fragment=2)         14.34     12.54     17.78 
 H(Fragment=2)         15.19     12.38     17.38 
 H(Fragment=2)         14.32     13.48     17.94 
 O(Fragment=2)         19.38     11.11     17.79 
 H(Fragment=2)         18.62     11.59     17.46 
 H(Fragment=2)         19.92     10.95     17.01 
 O(Fragment=2)         13.62     24.37     24.96 
 H(Fragment=2)         12.84     24.85     25.22 
 H(Fragment=2)         13.3      23.5      24.72 
 O(Fragment=2)         19.27     26.46     13.16 
 H(Fragment=2)         19.08     27.12     13.82 
 H(Fragment=2)         20.09     26.06     13.44 
 O(Fragment=2)         17.26     12.78     25.01 
 H(Fragment=2)         17.38     13.42     25.71 
 H(Fragment=2)         16.51     13.1      24.5 
 O(Fragment=2)         22.36     27.99     15.65 
 H(Fragment=2)         21.68     28.61     15.39 
 H(Fragment=2)         22.3      27.96     16.61 
 O(Fragment=2)         20.4      25.63     28.03 
 H(Fragment=2)         20.3      25.5      27.08 
 H(Fragment=2)         21.33     25.84     28.14 
 O(Fragment=2)         14.83     20.56     12.65 
 H(Fragment=2)         14.15     21.2      12.44 
 H(Fragment=2)         14.44     19.71     12.43 
 O(Fragment=2)         17.21     17.58     11.71 
 H(Fragment=2)         17.65     17.78     10.89 
 H(Fragment=2)         16.59     18.3      11.84 
 O(Fragment=2)         26.67     21.23     26.15 
 H(Fragment=2)         26.95     20.4      25.75 
 H(Fragment=2)         27.3      21.38     26.85 
 O(Fragment=2)         11.21     15.55     18.95 
 H(Fragment=2)         10.88     16.42     18.71 
 H(Fragment=2)         12.16     15.61     18.82 
 O(Fragment=2)         12.96     25.87     22.71 
 H(Fragment=2)         13.59     25.54     23.35 
 H(Fragment=2)         13.48     26.05     21.93 
 O(Fragment=2)         23.91     22.51     11.12 
 H(Fragment=2)         24.75     22.29     10.72 
 H(Fragment=2)         23.9      22.04     11.95 
 O(Fragment=2)         25.93     12.23     20.69 
 H(Fragment=2)         25.64     11.8      19.88 
 H(Fragment=2)         25.12     12.4      21.17 
 O(Fragment=2)         17.75     21.11     29.54 
 H(Fragment=2)         18.11     21.2      30.42 
 H(Fragment=2)         18.35     20.53     29.08 
 
 NAtoms=    385 NQM=      385 NQMF=       0 NMMI=      0 NMMIF=      0
                NMic=       0 NMicF=      0.
                    Isotopes and Nuclear Properties:
 (Nuclear quadrupole moments (NQMom) in fm**2, nuclear magnetic moments (NMagM)
  in nuclear magnetons)

  Atom         1           2           3           4           5           6           7           8           9          10
 IAtWgt=          79          16           1           1          16           1           1          16           1           1
 AtmWgt=  78.9183361  15.9949146   1.0078250   1.0078250  15.9949146   1.0078250   1.0078250  15.9949146   1.0078250   1.0078250
 NucSpn=           3           0           1           1           0           1           1           0           1           1
 AtZEff=   0.0000000   0.0000000   0.0000000   0.0000000   0.0000000   0.0000000   0.0000000   0.0000000   0.0000000   0.0000000
 NQMom=   31.3000000   0.0000000   0.0000000   0.0000000   0.0000000   0.0000000   0.0000000   0.0000000   0.0000000   0.0000000
 NMagM=    2.1063990   0.0000000   2.7928460   2.7928460   0.0000000   2.7928460   2.7928460   0.0000000   2.7928460   2.7928460
 AtZNuc=  35.0000000   8.0000000   1.0000000   1.0000000   8.0000000   1.0000000   1.0000000   8.0000000   1.0000000   1.0000000

  Atom        11          12          13          14          15          16          17          18          19          20
 IAtWgt=          16           1           1          16           1           1          16           1           1          16
 AtmWgt=  15.9949146   1.0078250   1.0078250  15.9949146   1.0078250   1.0078250  15.9949146   1.0078250   1.0078250  15.9949146
 NucSpn=           0           1           1           0           1           1           0           1           1           0
 AtZEff=   0.0000000   0.0000000   0.0000000   0.0000000   0.0000000   0.0000000   0.0000000   0.0000000   0.0000000   0.0000000
 NQMom=    0.0000000   0.0000000   0.0000000   0.0000000   0.0000000   0.0000000   0.0000000   0.0000000   0.0000000   0.0000000
 NMagM=    0.0000000   2.7928460   2.7928460   0.0000000   2.7928460   2.7928460   0.0000000   2.7928460   2.7928460   0.0000000
 AtZNuc=   8.0000000   1.0000000   1.0000000   8.0000000   1.0000000   1.0000000   8.0000000   1.0000000   1.0000000   8.0000000

  Atom        21          22          23          24          25          26          27          28          29          30
 IAtWgt=           1           1          16           1           1          16           1           1          16           1
 AtmWgt=   1.0078250   1.0078250  15.9949146   1.0078250   1.0078250  15.9949146   1.0078250   1.0078250  15.9949146   1.0078250
 NucSpn=           1           1           0           1           1           0           1           1           0           1
 AtZEff=   0.0000000   0.0000000   0.0000000   0.0000000   0.0000000   0.0000000   0.0000000   0.0000000   0.0000000   0.0000000
 NQMom=    0.0000000   0.0000000   0.0000000   0.0000000   0.0000000   0.0000000   0.0000000   0.0000000   0.0000000   0.0000000
 NMagM=    2.7928460   2.7928460   0.0000000   2.7928460   2.7928460   0.0000000   2.7928460   2.7928460   0.0000000   2.7928460
 AtZNuc=   1.0000000   1.0000000   8.0000000   1.0000000   1.0000000   8.0000000   1.0000000   1.0000000   8.0000000   1.0000000

  Atom        31          32          33          34          35          36          37          38          39          40
 IAtWgt=           1          16           1           1          16           1           1          16           1           1
 AtmWgt=   1.0078250  15.9949146   1.0078250   1.0078250  15.9949146   1.0078250   1.0078250  15.9949146   1.0078250   1.0078250
 NucSpn=           1           0           1           1           0           1           1           0           1           1
 AtZEff=   0.0000000   0.0000000   0.0000000   0.0000000   0.0000000   0.0000000   0.0000000   0.0000000   0.0000000   0.0000000
 NQMom=    0.0000000   0.0000000   0.0000000   0.0000000   0.0000000   0.0000000   0.0000000   0.0000000   0.0000000   0.0000000
 NMagM=    2.7928460   0.0000000   2.7928460   2.7928460   0.0000000   2.7928460   2.7928460   0.0000000   2.7928460   2.7928460
 AtZNuc=   1.0000000   8.0000000   1.0000000   1.0000000   8.0000000   1.0000000   1.0000000   8.0000000   1.0000000   1.0000000

  Atom        41          42          43          44          45          46          47          48          49          50
 IAtWgt=          16           1           1          16           1           1          16           1           1          16
 AtmWgt=  15.9949146   1.0078250   1.0078250  15.9949146   1.0078250   1.0078250  15.9949146   1.0078250   1.0078250  15.9949146
 NucSpn=           0           1           1           0           1           1           0           1           1           0
 AtZEff=   0.0000000   0.0000000   0.0000000   0.0000000   0.0000000   0.0000000   0.0000000   0.0000000   0.0000000   0.0000000
 NQMom=    0.0000000   0.0000000   0.0000000   0.0000000   0.0000000   0.0000000   0.0000000   0.0000000   0.0000000   0.0000000
 NMagM=    0.0000000   2.7928460   2.7928460   0.0000000   2.7928460   2.7928460   0.0000000   2.7928460   2.7928460   0.0000000
 AtZNuc=   8.0000000   1.0000000   1.0000000   8.0000000   1.0000000   1.0000000   8.0000000   1.0000000   1.0000000   8.0000000

  Atom        51          52          53          54          55          56          57          58          59          60
 IAtWgt=           1           1          16           1           1          16           1           1          16           1
 AtmWgt=   1.0078250   1.0078250  15.9949146   1.0078250   1.0078250  15.9949146   1.0078250   1.0078250  15.9949146   1.0078250
 NucSpn=           1           1           0           1           1           0           1           1           0           1
 AtZEff=   0.0000000   0.0000000   0.0000000   0.0000000   0.0000000   0.0000000   0.0000000   0.0000000   0.0000000   0.0000000
 NQMom=    0.0000000   0.0000000   0.0000000   0.0000000   0.0000000   0.0000000   0.0000000   0.0000000   0.0000000   0.0000000
 NMagM=    2.7928460   2.7928460   0.0000000   2.7928460   2.7928460   0.0000000   2.7928460   2.7928460   0.0000000   2.7928460
 AtZNuc=   1.0000000   1.0000000   8.0000000   1.0000000   1.0000000   8.0000000   1.0000000   1.0000000   8.0000000   1.0000000

  Atom        61          62          63          64          65          66          67          68          69          70
 IAtWgt=           1          16           1           1          16           1           1          16           1           1
 AtmWgt=   1.0078250  15.9949146   1.0078250   1.0078250  15.9949146   1.0078250   1.0078250  15.9949146   1.0078250   1.0078250
 NucSpn=           1           0           1           1           0           1           1           0           1           1
 AtZEff=   0.0000000   0.0000000   0.0000000   0.0000000   0.0000000   0.0000000   0.0000000   0.0000000   0.0000000   0.0000000
 NQMom=    0.0000000   0.0000000   0.0000000   0.0000000   0.0000000   0.0000000   0.0000000   0.0000000   0.0000000   0.0000000
 NMagM=    2.7928460   0.0000000   2.7928460   2.7928460   0.0000000   2.7928460   2.7928460   0.0000000   2.7928460   2.7928460
 AtZNuc=   1.0000000   8.0000000   1.0000000   1.0000000   8.0000000   1.0000000   1.0000000   8.0000000   1.0000000   1.0000000

  Atom        71          72          73          74          75          76          77          78          79          80
 IAtWgt=          16           1           1          16           1           1          16           1           1          16
 AtmWgt=  15.9949146   1.0078250   1.0078250  15.9949146   1.0078250   1.0078250  15.9949146   1.0078250   1.0078250  15.9949146
 NucSpn=           0           1           1           0           1           1           0           1           1           0
 AtZEff=   0.0000000   0.0000000   0.0000000   0.0000000   0.0000000   0.0000000   0.0000000   0.0000000   0.0000000   0.0000000
 NQMom=    0.0000000   0.0000000   0.0000000   0.0000000   0.0000000   0.0000000   0.0000000   0.0000000   0.0000000   0.0000000
 NMagM=    0.0000000   2.7928460   2.7928460   0.0000000   2.7928460   2.7928460   0.0000000   2.7928460   2.7928460   0.0000000
 AtZNuc=   8.0000000   1.0000000   1.0000000   8.0000000   1.0000000   1.0000000   8.0000000   1.0000000   1.0000000   8.0000000

  Atom        81          82          83          84          85          86          87          88          89          90
 IAtWgt=           1           1          16           1           1          16           1           1          16           1
 AtmWgt=   1.0078250   1.0078250  15.9949146   1.0078250   1.0078250  15.9949146   1.0078250   1.0078250  15.9949146   1.0078250
 NucSpn=           1           1           0           1           1           0           1           1           0           1
 AtZEff=   0.0000000   0.0000000   0.0000000   0.0000000   0.0000000   0.0000000   0.0000000   0.0000000   0.0000000   0.0000000
 NQMom=    0.0000000   0.0000000   0.0000000   0.0000000   0.0000000   0.0000000   0.0000000   0.0000000   0.0000000   0.0000000
 NMagM=    2.7928460   2.7928460   0.0000000   2.7928460   2.7928460   0.0000000   2.7928460   2.7928460   0.0000000   2.7928460
 AtZNuc=   1.0000000   1.0000000   8.0000000   1.0000000   1.0000000   8.0000000   1.0000000   1.0000000   8.0000000   1.0000000

  Atom        91          92          93          94          95          96          97          98          99         100
 IAtWgt=           1          16           1           1          16           1           1          16           1           1
 AtmWgt=   1.0078250  15.9949146   1.0078250   1.0078250  15.9949146   1.0078250   1.0078250  15.9949146   1.0078250   1.0078250
 NucSpn=           1           0           1           1           0           1           1           0           1           1
 AtZEff=   0.0000000   0.0000000   0.0000000   0.0000000   0.0000000   0.0000000   0.0000000   0.0000000   0.0000000   0.0000000
 NQMom=    0.0000000   0.0000000   0.0000000   0.0000000   0.0000000   0.0000000   0.0000000   0.0000000   0.0000000   0.0000000
 NMagM=    2.7928460   0.0000000   2.7928460   2.7928460   0.0000000   2.7928460   2.7928460   0.0000000   2.7928460   2.7928460
 AtZNuc=   1.0000000   8.0000000   1.0000000   1.0000000   8.0000000   1.0000000   1.0000000   8.0000000   1.0000000   1.0000000

  Atom       101         102         103         104         105         106         107         108         109         110
 IAtWgt=          16           1           1          16           1           1          16           1           1          16
 AtmWgt=  15.9949146   1.0078250   1.0078250  15.9949146   1.0078250   1.0078250  15.9949146   1.0078250   1.0078250  15.9949146
 NucSpn=           0           1           1           0           1           1           0           1           1           0
 AtZEff=   0.0000000   0.0000000   0.0000000   0.0000000   0.0000000   0.0000000   0.0000000   0.0000000   0.0000000   0.0000000
 NQMom=    0.0000000   0.0000000   0.0000000   0.0000000   0.0000000   0.0000000   0.0000000   0.0000000   0.0000000   0.0000000
 NMagM=    0.0000000   2.7928460   2.7928460   0.0000000   2.7928460   2.7928460   0.0000000   2.7928460   2.7928460   0.0000000
 AtZNuc=   8.0000000   1.0000000   1.0000000   8.0000000   1.0000000   1.0000000   8.0000000   1.0000000   1.0000000   8.0000000

  Atom       111         112         113         114         115         116         117         118         119         120
 IAtWgt=           1           1          16           1           1          16           1           1          16           1
 AtmWgt=   1.0078250   1.0078250  15.9949146   1.0078250   1.0078250  15.9949146   1.0078250   1.0078250  15.9949146   1.0078250
 NucSpn=           1           1           0           1           1           0           1           1           0           1
 AtZEff=   0.0000000   0.0000000   0.0000000   0.0000000   0.0000000   0.0000000   0.0000000   0.0000000   0.0000000   0.0000000
 NQMom=    0.0000000   0.0000000   0.0000000   0.0000000   0.0000000   0.0000000   0.0000000   0.0000000   0.0000000   0.0000000
 NMagM=    2.7928460   2.7928460   0.0000000   2.7928460   2.7928460   0.0000000   2.7928460   2.7928460   0.0000000   2.7928460
 AtZNuc=   1.0000000   1.0000000   8.0000000   1.0000000   1.0000000   8.0000000   1.0000000   1.0000000   8.0000000   1.0000000

  Atom       121         122         123         124         125         126         127         128         129         130
 IAtWgt=           1          16           1           1          16           1           1          16           1           1
 AtmWgt=   1.0078250  15.9949146   1.0078250   1.0078250  15.9949146   1.0078250   1.0078250  15.9949146   1.0078250   1.0078250
 NucSpn=           1           0           1           1           0           1           1           0           1           1
 AtZEff=   0.0000000   0.0000000   0.0000000   0.0000000   0.0000000   0.0000000   0.0000000   0.0000000   0.0000000   0.0000000
 NQMom=    0.0000000   0.0000000   0.0000000   0.0000000   0.0000000   0.0000000   0.0000000   0.0000000   0.0000000   0.0000000
 NMagM=    2.7928460   0.0000000   2.7928460   2.7928460   0.0000000   2.7928460   2.7928460   0.0000000   2.7928460   2.7928460
 AtZNuc=   1.0000000   8.0000000   1.0000000   1.0000000   8.0000000   1.0000000   1.0000000   8.0000000   1.0000000   1.0000000

  Atom       131         132         133         134         135         136         137         138         139         140
 IAtWgt=          16           1           1          16           1           1          16           1           1          16
 AtmWgt=  15.9949146   1.0078250   1.0078250  15.9949146   1.0078250   1.0078250  15.9949146   1.0078250   1.0078250  15.9949146
 NucSpn=           0           1           1           0           1           1           0           1           1           0
 AtZEff=   0.0000000   0.0000000   0.0000000   0.0000000   0.0000000   0.0000000   0.0000000   0.0000000   0.0000000   0.0000000
 NQMom=    0.0000000   0.0000000   0.0000000   0.0000000   0.0000000   0.0000000   0.0000000   0.0000000   0.0000000   0.0000000
 NMagM=    0.0000000   2.7928460   2.7928460   0.0000000   2.7928460   2.7928460   0.0000000   2.7928460   2.7928460   0.0000000
 AtZNuc=   8.0000000   1.0000000   1.0000000   8.0000000   1.0000000   1.0000000   8.0000000   1.0000000   1.0000000   8.0000000

  Atom       141         142         143         144         145         146         147         148         149         150
 IAtWgt=           1           1          16           1           1          16           1           1          16           1
 AtmWgt=   1.0078250   1.0078250  15.9949146   1.0078250   1.0078250  15.9949146   1.0078250   1.0078250  15.9949146   1.0078250
 NucSpn=           1           1           0           1           1           0           1           1           0           1
 AtZEff=   0.0000000   0.0000000   0.0000000   0.0000000   0.0000000   0.0000000   0.0000000   0.0000000   0.0000000   0.0000000
 NQMom=    0.0000000   0.0000000   0.0000000   0.0000000   0.0000000   0.0000000   0.0000000   0.0000000   0.0000000   0.0000000
 NMagM=    2.7928460   2.7928460   0.0000000   2.7928460   2.7928460   0.0000000   2.7928460   2.7928460   0.0000000   2.7928460
 AtZNuc=   1.0000000   1.0000000   8.0000000   1.0000000   1.0000000   8.0000000   1.0000000   1.0000000   8.0000000   1.0000000

  Atom       151         152         153         154         155         156         157         158         159         160
 IAtWgt=           1          16           1           1          16           1           1          16           1           1
 AtmWgt=   1.0078250  15.9949146   1.0078250   1.0078250  15.9949146   1.0078250   1.0078250  15.9949146   1.0078250   1.0078250
 NucSpn=           1           0           1           1           0           1           1           0           1           1
 AtZEff=   0.0000000   0.0000000   0.0000000   0.0000000   0.0000000   0.0000000   0.0000000   0.0000000   0.0000000   0.0000000
 NQMom=    0.0000000   0.0000000   0.0000000   0.0000000   0.0000000   0.0000000   0.0000000   0.0000000   0.0000000   0.0000000
 NMagM=    2.7928460   0.0000000   2.7928460   2.7928460   0.0000000   2.7928460   2.7928460   0.0000000   2.7928460   2.7928460
 AtZNuc=   1.0000000   8.0000000   1.0000000   1.0000000   8.0000000   1.0000000   1.0000000   8.0000000   1.0000000   1.0000000

  Atom       161         162         163         164         165         166         167         168         169         170
 IAtWgt=          16           1           1          16           1           1          16           1           1          16
 AtmWgt=  15.9949146   1.0078250   1.0078250  15.9949146   1.0078250   1.0078250  15.9949146   1.0078250   1.0078250  15.9949146
 NucSpn=           0           1           1           0           1           1           0           1           1           0
 AtZEff=   0.0000000   0.0000000   0.0000000   0.0000000   0.0000000   0.0000000   0.0000000   0.0000000   0.0000000   0.0000000
 NQMom=    0.0000000   0.0000000   0.0000000   0.0000000   0.0000000   0.0000000   0.0000000   0.0000000   0.0000000   0.0000000
 NMagM=    0.0000000   2.7928460   2.7928460   0.0000000   2.7928460   2.7928460   0.0000000   2.7928460   2.7928460   0.0000000
 AtZNuc=   8.0000000   1.0000000   1.0000000   8.0000000   1.0000000   1.0000000   8.0000000   1.0000000   1.0000000   8.0000000

  Atom       171         172         173         174         175         176         177         178         179         180
 IAtWgt=           1           1          16           1           1          16           1           1          16           1
 AtmWgt=   1.0078250   1.0078250  15.9949146   1.0078250   1.0078250  15.9949146   1.0078250   1.0078250  15.9949146   1.0078250
 NucSpn=           1           1           0           1           1           0           1           1           0           1
 AtZEff=   0.0000000   0.0000000   0.0000000   0.0000000   0.0000000   0.0000000   0.0000000   0.0000000   0.0000000   0.0000000
 NQMom=    0.0000000   0.0000000   0.0000000   0.0000000   0.0000000   0.0000000   0.0000000   0.0000000   0.0000000   0.0000000
 NMagM=    2.7928460   2.7928460   0.0000000   2.7928460   2.7928460   0.0000000   2.7928460   2.7928460   0.0000000   2.7928460
 AtZNuc=   1.0000000   1.0000000   8.0000000   1.0000000   1.0000000   8.0000000   1.0000000   1.0000000   8.0000000   1.0000000

  Atom       181         182         183         184         185         186         187         188         189         190
 IAtWgt=           1          16           1           1          16           1           1          16           1           1
 AtmWgt=   1.0078250  15.9949146   1.0078250   1.0078250  15.9949146   1.0078250   1.0078250  15.9949146   1.0078250   1.0078250
 NucSpn=           1           0           1           1           0           1           1           0           1           1
 AtZEff=   0.0000000   0.0000000   0.0000000   0.0000000   0.0000000   0.0000000   0.0000000   0.0000000   0.0000000   0.0000000
 NQMom=    0.0000000   0.0000000   0.0000000   0.0000000   0.0000000   0.0000000   0.0000000   0.0000000   0.0000000   0.0000000
 NMagM=    2.7928460   0.0000000   2.7928460   2.7928460   0.0000000   2.7928460   2.7928460   0.0000000   2.7928460   2.7928460
 AtZNuc=   1.0000000   8.0000000   1.0000000   1.0000000   8.0000000   1.0000000   1.0000000   8.0000000   1.0000000   1.0000000

  Atom       191         192         193         194         195         196         197         198         199         200
 IAtWgt=          16           1           1          16           1           1          16           1           1          16
 AtmWgt=  15.9949146   1.0078250   1.0078250  15.9949146   1.0078250   1.0078250  15.9949146   1.0078250   1.0078250  15.9949146
 NucSpn=           0           1           1           0           1           1           0           1           1           0
 AtZEff=   0.0000000   0.0000000   0.0000000   0.0000000   0.0000000   0.0000000   0.0000000   0.0000000   0.0000000   0.0000000
 NQMom=    0.0000000   0.0000000   0.0000000   0.0000000   0.0000000   0.0000000   0.0000000   0.0000000   0.0000000   0.0000000
 NMagM=    0.0000000   2.7928460   2.7928460   0.0000000   2.7928460   2.7928460   0.0000000   2.7928460   2.7928460   0.0000000
 AtZNuc=   8.0000000   1.0000000   1.0000000   8.0000000   1.0000000   1.0000000   8.0000000   1.0000000   1.0000000   8.0000000

  Atom       201         202         203         204         205         206         207         208         209         210
 IAtWgt=           1           1          16           1           1          16           1           1          16           1
 AtmWgt=   1.0078250   1.0078250  15.9949146   1.0078250   1.0078250  15.9949146   1.0078250   1.0078250  15.9949146   1.0078250
 NucSpn=           1           1           0           1           1           0           1           1           0           1
 AtZEff=   0.0000000   0.0000000   0.0000000   0.0000000   0.0000000   0.0000000   0.0000000   0.0000000   0.0000000   0.0000000
 NQMom=    0.0000000   0.0000000   0.0000000   0.0000000   0.0000000   0.0000000   0.0000000   0.0000000   0.0000000   0.0000000
 NMagM=    2.7928460   2.7928460   0.0000000   2.7928460   2.7928460   0.0000000   2.7928460   2.7928460   0.0000000   2.7928460
 AtZNuc=   1.0000000   1.0000000   8.0000000   1.0000000   1.0000000   8.0000000   1.0000000   1.0000000   8.0000000   1.0000000

  Atom       211         212         213         214         215         216         217         218         219         220
 IAtWgt=           1          16           1           1          16           1           1          16           1           1
 AtmWgt=   1.0078250  15.9949146   1.0078250   1.0078250  15.9949146   1.0078250   1.0078250  15.9949146   1.0078250   1.0078250
 NucSpn=           1           0           1           1           0           1           1           0           1           1
 AtZEff=   0.0000000   0.0000000   0.0000000   0.0000000   0.0000000   0.0000000   0.0000000   0.0000000   0.0000000   0.0000000
 NQMom=    0.0000000   0.0000000   0.0000000   0.0000000   0.0000000   0.0000000   0.0000000   0.0000000   0.0000000   0.0000000
 NMagM=    2.7928460   0.0000000   2.7928460   2.7928460   0.0000000   2.7928460   2.7928460   0.0000000   2.7928460   2.7928460
 AtZNuc=   1.0000000   8.0000000   1.0000000   1.0000000   8.0000000   1.0000000   1.0000000   8.0000000   1.0000000   1.0000000

  Atom       221         222         223         224         225         226         227         228         229         230
 IAtWgt=          16           1           1          16           1           1          16           1           1          16
 AtmWgt=  15.9949146   1.0078250   1.0078250  15.9949146   1.0078250   1.0078250  15.9949146   1.0078250   1.0078250  15.9949146
 NucSpn=           0           1           1           0           1           1           0           1           1           0
 AtZEff=   0.0000000   0.0000000   0.0000000   0.0000000   0.0000000   0.0000000   0.0000000   0.0000000   0.0000000   0.0000000
 NQMom=    0.0000000   0.0000000   0.0000000   0.0000000   0.0000000   0.0000000   0.0000000   0.0000000   0.0000000   0.0000000
 NMagM=    0.0000000   2.7928460   2.7928460   0.0000000   2.7928460   2.7928460   0.0000000   2.7928460   2.7928460   0.0000000
 AtZNuc=   8.0000000   1.0000000   1.0000000   8.0000000   1.0000000   1.0000000   8.0000000   1.0000000   1.0000000   8.0000000

  Atom       231         232         233         234         235         236         237         238         239         240
 IAtWgt=           1           1          16           1           1          16           1           1          16           1
 AtmWgt=   1.0078250   1.0078250  15.9949146   1.0078250   1.0078250  15.9949146   1.0078250   1.0078250  15.9949146   1.0078250
 NucSpn=           1           1           0           1           1           0           1           1           0           1
 AtZEff=   0.0000000   0.0000000   0.0000000   0.0000000   0.0000000   0.0000000   0.0000000   0.0000000   0.0000000   0.0000000
 NQMom=    0.0000000   0.0000000   0.0000000   0.0000000   0.0000000   0.0000000   0.0000000   0.0000000   0.0000000   0.0000000
 NMagM=    2.7928460   2.7928460   0.0000000   2.7928460   2.7928460   0.0000000   2.7928460   2.7928460   0.0000000   2.7928460
 AtZNuc=   1.0000000   1.0000000   8.0000000   1.0000000   1.0000000   8.0000000   1.0000000   1.0000000   8.0000000   1.0000000

  Atom       241         242         243         244         245         246         247         248         249         250
 IAtWgt=           1          16           1           1          16           1           1          16           1           1
 AtmWgt=   1.0078250  15.9949146   1.0078250   1.0078250  15.9949146   1.0078250   1.0078250  15.9949146   1.0078250   1.0078250
 NucSpn=           1           0           1           1           0           1           1           0           1           1
 AtZEff=   0.0000000   0.0000000   0.0000000   0.0000000   0.0000000   0.0000000   0.0000000   0.0000000   0.0000000   0.0000000
 NQMom=    0.0000000   0.0000000   0.0000000   0.0000000   0.0000000   0.0000000   0.0000000   0.0000000   0.0000000   0.0000000
 NMagM=    2.7928460   0.0000000   2.7928460   2.7928460   0.0000000   2.7928460   2.7928460   0.0000000   2.7928460   2.7928460
 AtZNuc=   1.0000000   8.0000000   1.0000000   1.0000000   8.0000000   1.0000000   1.0000000   8.0000000   1.0000000   1.0000000

  Atom       251         252         253         254         255         256         257         258         259         260
 IAtWgt=          16           1           1          16           1           1          16           1           1          16
 AtmWgt=  15.9949146   1.0078250   1.0078250  15.9949146   1.0078250   1.0078250  15.9949146   1.0078250   1.0078250  15.9949146
 NucSpn=           0           1           1           0           1           1           0           1           1           0
 AtZEff=   0.0000000   0.0000000   0.0000000   0.0000000   0.0000000   0.0000000   0.0000000   0.0000000   0.0000000   0.0000000
 NQMom=    0.0000000   0.0000000   0.0000000   0.0000000   0.0000000   0.0000000   0.0000000   0.0000000   0.0000000   0.0000000
 NMagM=    0.0000000   2.7928460   2.7928460   0.0000000   2.7928460   2.7928460   0.0000000   2.7928460   2.7928460   0.0000000
 AtZNuc=   8.0000000   1.0000000   1.0000000   8.0000000   1.0000000   1.0000000   8.0000000   1.0000000   1.0000000   8.0000000

  Atom       261         262         263         264         265         266         267         268         269         270
 IAtWgt=           1           1          16           1           1          16           1           1          16           1
 AtmWgt=   1.0078250   1.0078250  15.9949146   1.0078250   1.0078250  15.9949146   1.0078250   1.0078250  15.9949146   1.0078250
 NucSpn=           1           1           0           1           1           0           1           1           0           1
 AtZEff=   0.0000000   0.0000000   0.0000000   0.0000000   0.0000000   0.0000000   0.0000000   0.0000000   0.0000000   0.0000000
 NQMom=    0.0000000   0.0000000   0.0000000   0.0000000   0.0000000   0.0000000   0.0000000   0.0000000   0.0000000   0.0000000
 NMagM=    2.7928460   2.7928460   0.0000000   2.7928460   2.7928460   0.0000000   2.7928460   2.7928460   0.0000000   2.7928460
 AtZNuc=   1.0000000   1.0000000   8.0000000   1.0000000   1.0000000   8.0000000   1.0000000   1.0000000   8.0000000   1.0000000

  Atom       271         272         273         274         275         276         277         278         279         280
 IAtWgt=           1          16           1           1          16           1           1          16           1           1
 AtmWgt=   1.0078250  15.9949146   1.0078250   1.0078250  15.9949146   1.0078250   1.0078250  15.9949146   1.0078250   1.0078250
 NucSpn=           1           0           1           1           0           1           1           0           1           1
 AtZEff=   0.0000000   0.0000000   0.0000000   0.0000000   0.0000000   0.0000000   0.0000000   0.0000000   0.0000000   0.0000000
 NQMom=    0.0000000   0.0000000   0.0000000   0.0000000   0.0000000   0.0000000   0.0000000   0.0000000   0.0000000   0.0000000
 NMagM=    2.7928460   0.0000000   2.7928460   2.7928460   0.0000000   2.7928460   2.7928460   0.0000000   2.7928460   2.7928460
 AtZNuc=   1.0000000   8.0000000   1.0000000   1.0000000   8.0000000   1.0000000   1.0000000   8.0000000   1.0000000   1.0000000

  Atom       281         282         283         284         285         286         287         288         289         290
 IAtWgt=          16           1           1          16           1           1          16           1           1          16
 AtmWgt=  15.9949146   1.0078250   1.0078250  15.9949146   1.0078250   1.0078250  15.9949146   1.0078250   1.0078250  15.9949146
 NucSpn=           0           1           1           0           1           1           0           1           1           0
 AtZEff=   0.0000000   0.0000000   0.0000000   0.0000000   0.0000000   0.0000000   0.0000000   0.0000000   0.0000000   0.0000000
 NQMom=    0.0000000   0.0000000   0.0000000   0.0000000   0.0000000   0.0000000   0.0000000   0.0000000   0.0000000   0.0000000
 NMagM=    0.0000000   2.7928460   2.7928460   0.0000000   2.7928460   2.7928460   0.0000000   2.7928460   2.7928460   0.0000000
 AtZNuc=   8.0000000   1.0000000   1.0000000   8.0000000   1.0000000   1.0000000   8.0000000   1.0000000   1.0000000   8.0000000

  Atom       291         292         293         294         295         296         297         298         299         300
 IAtWgt=           1           1          16           1           1          16           1           1          16           1
 AtmWgt=   1.0078250   1.0078250  15.9949146   1.0078250   1.0078250  15.9949146   1.0078250   1.0078250  15.9949146   1.0078250
 NucSpn=           1           1           0           1           1           0           1           1           0           1
 AtZEff=   0.0000000   0.0000000   0.0000000   0.0000000   0.0000000   0.0000000   0.0000000   0.0000000   0.0000000   0.0000000
 NQMom=    0.0000000   0.0000000   0.0000000   0.0000000   0.0000000   0.0000000   0.0000000   0.0000000   0.0000000   0.0000000
 NMagM=    2.7928460   2.7928460   0.0000000   2.7928460   2.7928460   0.0000000   2.7928460   2.7928460   0.0000000   2.7928460
 AtZNuc=   1.0000000   1.0000000   8.0000000   1.0000000   1.0000000   8.0000000   1.0000000   1.0000000   8.0000000   1.0000000

  Atom       301         302         303         304         305         306         307         308         309         310
 IAtWgt=           1          16           1           1          16           1           1          16           1           1
 AtmWgt=   1.0078250  15.9949146   1.0078250   1.0078250  15.9949146   1.0078250   1.0078250  15.9949146   1.0078250   1.0078250
 NucSpn=           1           0           1           1           0           1           1           0           1           1
 AtZEff=   0.0000000   0.0000000   0.0000000   0.0000000   0.0000000   0.0000000   0.0000000   0.0000000   0.0000000   0.0000000
 NQMom=    0.0000000   0.0000000   0.0000000   0.0000000   0.0000000   0.0000000   0.0000000   0.0000000   0.0000000   0.0000000
 NMagM=    2.7928460   0.0000000   2.7928460   2.7928460   0.0000000   2.7928460   2.7928460   0.0000000   2.7928460   2.7928460
 AtZNuc=   1.0000000   8.0000000   1.0000000   1.0000000   8.0000000   1.0000000   1.0000000   8.0000000   1.0000000   1.0000000

  Atom       311         312         313         314         315         316         317         318         319         320
 IAtWgt=          16           1           1          16           1           1          16           1           1          16
 AtmWgt=  15.9949146   1.0078250   1.0078250  15.9949146   1.0078250   1.0078250  15.9949146   1.0078250   1.0078250  15.9949146
 NucSpn=           0           1           1           0           1           1           0           1           1           0
 AtZEff=   0.0000000   0.0000000   0.0000000   0.0000000   0.0000000   0.0000000   0.0000000   0.0000000   0.0000000   0.0000000
 NQMom=    0.0000000   0.0000000   0.0000000   0.0000000   0.0000000   0.0000000   0.0000000   0.0000000   0.0000000   0.0000000
 NMagM=    0.0000000   2.7928460   2.7928460   0.0000000   2.7928460   2.7928460   0.0000000   2.7928460   2.7928460   0.0000000
 AtZNuc=   8.0000000   1.0000000   1.0000000   8.0000000   1.0000000   1.0000000   8.0000000   1.0000000   1.0000000   8.0000000

  Atom       321         322         323         324         325         326         327         328         329         330
 IAtWgt=           1           1          16           1           1          16           1           1          16           1
 AtmWgt=   1.0078250   1.0078250  15.9949146   1.0078250   1.0078250  15.9949146   1.0078250   1.0078250  15.9949146   1.0078250
 NucSpn=           1           1           0           1           1           0           1           1           0           1
 AtZEff=   0.0000000   0.0000000   0.0000000   0.0000000   0.0000000   0.0000000   0.0000000   0.0000000   0.0000000   0.0000000
 NQMom=    0.0000000   0.0000000   0.0000000   0.0000000   0.0000000   0.0000000   0.0000000   0.0000000   0.0000000   0.0000000
 NMagM=    2.7928460   2.7928460   0.0000000   2.7928460   2.7928460   0.0000000   2.7928460   2.7928460   0.0000000   2.7928460
 AtZNuc=   1.0000000   1.0000000   8.0000000   1.0000000   1.0000000   8.0000000   1.0000000   1.0000000   8.0000000   1.0000000

  Atom       331         332         333         334         335         336         337         338         339         340
 IAtWgt=           1          16           1           1          16           1           1          16           1           1
 AtmWgt=   1.0078250  15.9949146   1.0078250   1.0078250  15.9949146   1.0078250   1.0078250  15.9949146   1.0078250   1.0078250
 NucSpn=           1           0           1           1           0           1           1           0           1           1
 AtZEff=   0.0000000   0.0000000   0.0000000   0.0000000   0.0000000   0.0000000   0.0000000   0.0000000   0.0000000   0.0000000
 NQMom=    0.0000000   0.0000000   0.0000000   0.0000000   0.0000000   0.0000000   0.0000000   0.0000000   0.0000000   0.0000000
 NMagM=    2.7928460   0.0000000   2.7928460   2.7928460   0.0000000   2.7928460   2.7928460   0.0000000   2.7928460   2.7928460
 AtZNuc=   1.0000000   8.0000000   1.0000000   1.0000000   8.0000000   1.0000000   1.0000000   8.0000000   1.0000000   1.0000000

  Atom       341         342         343         344         345         346         347         348         349         350
 IAtWgt=          16           1           1          16           1           1          16           1           1          16
 AtmWgt=  15.9949146   1.0078250   1.0078250  15.9949146   1.0078250   1.0078250  15.9949146   1.0078250   1.0078250  15.9949146
 NucSpn=           0           1           1           0           1           1           0           1           1           0
 AtZEff=   0.0000000   0.0000000   0.0000000   0.0000000   0.0000000   0.0000000   0.0000000   0.0000000   0.0000000   0.0000000
 NQMom=    0.0000000   0.0000000   0.0000000   0.0000000   0.0000000   0.0000000   0.0000000   0.0000000   0.0000000   0.0000000
 NMagM=    0.0000000   2.7928460   2.7928460   0.0000000   2.7928460   2.7928460   0.0000000   2.7928460   2.7928460   0.0000000
 AtZNuc=   8.0000000   1.0000000   1.0000000   8.0000000   1.0000000   1.0000000   8.0000000   1.0000000   1.0000000   8.0000000

  Atom       351         352         353         354         355         356         357         358         359         360
 IAtWgt=           1           1          16           1           1          16           1           1          16           1
 AtmWgt=   1.0078250   1.0078250  15.9949146   1.0078250   1.0078250  15.9949146   1.0078250   1.0078250  15.9949146   1.0078250
 NucSpn=           1           1           0           1           1           0           1           1           0           1
 AtZEff=   0.0000000   0.0000000   0.0000000   0.0000000   0.0000000   0.0000000   0.0000000   0.0000000   0.0000000   0.0000000
 NQMom=    0.0000000   0.0000000   0.0000000   0.0000000   0.0000000   0.0000000   0.0000000   0.0000000   0.0000000   0.0000000
 NMagM=    2.7928460   2.7928460   0.0000000   2.7928460   2.7928460   0.0000000   2.7928460   2.7928460   0.0000000   2.7928460
 AtZNuc=   1.0000000   1.0000000   8.0000000   1.0000000   1.0000000   8.0000000   1.0000000   1.0000000   8.0000000   1.0000000

  Atom       361         362         363         364         365         366         367         368         369         370
 IAtWgt=           1          16           1           1          16           1           1          16           1           1
 AtmWgt=   1.0078250  15.9949146   1.0078250   1.0078250  15.9949146   1.0078250   1.0078250  15.9949146   1.0078250   1.0078250
 NucSpn=           1           0           1           1           0           1           1           0           1           1
 AtZEff=   0.0000000   0.0000000   0.0000000   0.0000000   0.0000000   0.0000000   0.0000000   0.0000000   0.0000000   0.0000000
 NQMom=    0.0000000   0.0000000   0.0000000   0.0000000   0.0000000   0.0000000   0.0000000   0.0000000   0.0000000   0.0000000
 NMagM=    2.7928460   0.0000000   2.7928460   2.7928460   0.0000000   2.7928460   2.7928460   0.0000000   2.7928460   2.7928460
 AtZNuc=   1.0000000   8.0000000   1.0000000   1.0000000   8.0000000   1.0000000   1.0000000   8.0000000   1.0000000   1.0000000

  Atom       371         372         373         374         375         376         377         378         379         380
 IAtWgt=          16           1           1          16           1           1          16           1           1          16
 AtmWgt=  15.9949146   1.0078250   1.0078250  15.9949146   1.0078250   1.0078250  15.9949146   1.0078250   1.0078250  15.9949146
 NucSpn=           0           1           1           0           1           1           0           1           1           0
 AtZEff=   0.0000000   0.0000000   0.0000000   0.0000000   0.0000000   0.0000000   0.0000000   0.0000000   0.0000000   0.0000000
 NQMom=    0.0000000   0.0000000   0.0000000   0.0000000   0.0000000   0.0000000   0.0000000   0.0000000   0.0000000   0.0000000
 NMagM=    0.0000000   2.7928460   2.7928460   0.0000000   2.7928460   2.7928460   0.0000000   2.7928460   2.7928460   0.0000000
 AtZNuc=   8.0000000   1.0000000   1.0000000   8.0000000   1.0000000   1.0000000   8.0000000   1.0000000   1.0000000   8.0000000

  Atom       381         382         383         384         385
 IAtWgt=           1           1          16           1           1
 AtmWgt=   1.0078250   1.0078250  15.9949146   1.0078250   1.0078250
 NucSpn=           1           1           0           1           1
 AtZEff=   0.0000000   0.0000000   0.0000000   0.0000000   0.0000000
 NQMom=    0.0000000   0.0000000   0.0000000   0.0000000   0.0000000
 NMagM=    2.7928460   2.7928460   0.0000000   2.7928460   2.7928460
 AtZNuc=   1.0000000   1.0000000   8.0000000   1.0000000   1.0000000
 Leave Link  101 at Sat May  5 14:49:23 2018, MaxMem= 14763950080 cpu:        33.2
 (Enter /cm/shared/gaussian/g09.e01/intel64-sandybridge/g09/l103.exe)

 GradGradGradGradGradGradGradGradGradGradGradGradGradGradGradGradGradGrad
 Berny optimization.
 Initialization pass.
 Trust Radius=3.00D-01 FncErr=1.00D-07 GrdErr=1.00D-07
 Number of steps in this run=      2 maximum allowed number of steps=      2.
 GradGradGradGradGradGradGradGradGradGradGradGradGradGradGradGradGradGrad

 Leave Link  103 at Sat May  5 14:49:23 2018, MaxMem= 14763950080 cpu:         3.7
 (Enter /cm/shared/gaussian/g09.e01/intel64-sandybridge/g09/l202.exe)
 Symmetry turned off by external request.
 Stoichiometry    BrH256O128(1-)
 Framework group  C1[X(BrH256O128)]
 Deg. of freedom  1149
 Full point group                 C1      NOp   1
                          Input orientation:                          
 ---------------------------------------------------------------------
 Center     Atomic      Atomic             Coordinates (Angstroms)
 Number     Number       Type             X           Y           Z
 ---------------------------------------------------------------------
      1         35           0       20.000000   20.000000   20.000000
      2          8           0       22.950000   20.030000   19.040000
      3          1           0       22.020000   19.900000   19.220000
      4          1           0       23.390000   19.800000   19.850000
      5          8           0       19.080000   18.180000   22.350000
      6          1           0       19.480000   18.590000   21.580000
      7          1           0       19.450000   18.650000   23.100000
      8          8           0       21.160000   17.080000   19.510000
      9          1           0       21.070000   18.040000   19.490000
     10          1           0       21.710000   16.880000   18.750000
     11          8           0       17.980000   21.490000   17.770000
     12          1           0       18.460000   21.790000   17.000000
     13          1           0       18.650000   21.100000   18.330000
     14          8           0       16.830000   20.810000   21.090000
     15          1           0       16.620000   19.890000   21.240000
     16          1           0       17.540000   20.800000   20.450000
     17          8           0       21.860000   22.570000   21.970000
     18          1           0       22.480000   21.860000   22.130000
     19          1           0       21.390000   22.290000   21.170000
     20          8           0       18.470000   16.730000   20.090000
     21          1           0       18.540000   17.080000   20.980000
     22          1           0       19.350000   16.850000   19.720000
     23          8           0       21.910000   19.990000   16.530000
     24          1           0       21.610000   19.110000   16.300000
     25          1           0       22.050000   19.960000   17.480000
     26          8           0       22.170000   22.860000   18.190000
     27          1           0       22.880000   23.180000   17.630000
     28          1           0       22.530000   22.070000   18.600000
     29          8           0       18.180000   23.780000   20.640000
     30          1           0       18.590000   23.990000   19.800000
     31          1           0       17.600000   23.050000   20.450000
     32          8           0       16.610000   17.080000   18.430000
     33          1           0       17.130000   17.630000   17.830000
     34          1           0       17.120000   17.070000   19.240000
     35          8           0       19.380000   23.430000   23.070000
     36          1           0       20.240000   23.150000   22.750000
     37          1           0       18.830000   23.430000   22.280000
     38          8           0       19.710000   21.160000   15.520000
     39          1           0       19.530000   20.940000   14.610000
     40          1           0       20.470000   20.630000   15.750000
     41          8           0       15.190000   20.800000   18.070000
     42          1           0       15.280000   20.280000   17.270000
     43          1           0       16.040000   21.240000   18.160000
     44          8           0       24.180000   20.580000   21.970000
     45          1           0       24.030000   19.780000   22.480000
     46          1           0       25.010000   20.920000   22.300000
     47          8           0       20.290000   17.960000   15.540000
     48          1           0       20.320000   17.010000   15.500000
     49          1           0       19.360000   18.170000   15.700000
     50          8           0       15.080000   22.760000   19.920000
     51          1           0       15.500000   21.910000   20.070000
     52          1           0       14.360000   22.580000   19.330000
     53          8           0       17.450000   18.340000   16.120000
     54          1           0       17.100000   17.770000   15.440000
     55          1           0       17.390000   19.220000   15.740000
     56          8           0       25.590000   21.570000   19.630000
     57          1           0       24.830000   21.230000   20.100000
     58          1           0       25.300000   22.400000   19.260000
     59          8           0       23.020000   16.760000   17.640000
     60          1           0       23.020000   16.540000   16.710000
     61          1           0       23.920000   17.050000   17.820000
     62          8           0       25.390000   18.430000   18.140000
     63          1           0       26.030000   17.930000   18.650000
     64          1           0       24.620000   18.480000   18.710000
     65          8           0       22.950000   25.100000   20.540000
     66          1           0       22.100000   24.650000   20.510000
     67          1           0       23.410000   24.810000   19.750000
     68          8           0       18.500000   14.380000   17.980000
     69          1           0       18.750000   13.870000   18.760000
     70          1           0       18.410000   15.270000   18.310000
     71          8           0       15.250000   22.320000   23.250000
     72          1           0       16.100000   22.130000   22.850000
     73          1           0       15.280000   23.260000   23.420000
     74          8           0       19.280000   19.320000   25.400000
     75          1           0       18.840000   20.140000   25.190000
     76          1           0       19.160000   19.210000   26.340000
     77          8           0       17.880000   21.530000   25.300000
     78          1           0       18.240000   22.060000   24.590000
     79          1           0       17.920000   22.090000   26.070000
     80          8           0       19.490000   14.190000   22.040000
     81          1           0       19.560000   15.130000   22.210000
     82          1           0       19.740000   13.780000   22.870000
     83          8           0       14.030000   18.860000   19.870000
     84          1           0       14.700000   19.370000   19.430000
     85          1           0       14.080000   17.990000   19.470000
     86          8           0       21.300000   14.130000   19.650000
     87          1           0       20.470000   14.390000   20.060000
     88          1           0       21.790000   14.940000   19.550000
     89          8           0       21.470000   21.210000   25.490000
     90          1           0       20.980000   20.410000   25.300000
     91          1           0       20.920000   21.920000   25.160000
     92          8           0       18.800000   15.850000   24.790000
     93          1           0       18.710000   16.650000   24.270000
     94          1           0       18.060000   15.860000   25.390000
     95          8           0       21.410000   17.300000   25.460000
     96          1           0       21.700000   16.880000   24.650000
     97          1           0       21.030000   18.130000   25.170000
     98          8           0       20.870000   23.550000   15.010000
     99          1           0       20.400000   22.720000   15.100000
    100          1           0       21.170000   23.750000   15.900000
    101          8           0       24.170000   15.180000   20.940000
    102          1           0       24.000000   16.040000   20.560000
    103          1           0       25.070000   14.980000   20.700000
    104          8           0       24.270000   18.670000   15.660000
    105          1           0       24.830000   18.850000   16.420000
    106          1           0       23.600000   19.350000   15.680000
    107          8           0       14.400000   19.670000   22.560000
    108          1           0       14.260000   19.260000   21.710000
    109          1           0       14.810000   20.510000   22.360000
    110          8           0       19.140000   26.540000   21.020000
    111          1           0       19.050000   25.620000   20.750000
    112          1           0       19.710000   26.920000   20.350000
    113          8           0       14.730000   18.410000   16.460000
    114          1           0       14.300000   17.550000   16.390000
    115          1           0       15.650000   18.200000   16.600000
    116          8           0       23.310000   24.350000   23.890000
    117          1           0       23.740000   23.650000   24.380000
    118          1           0       23.020000   23.930000   23.080000
    119          8           0       20.370000   25.570000   17.400000
    120          1           0       19.460000   25.610000   17.100000
    121          1           0       20.440000   26.280000   18.030000
    122          8           0       16.720000   14.790000   22.430000
    123          1           0       16.520000   15.460000   23.080000
    124          1           0       17.680000   14.790000   22.370000
    125          8           0       23.100000   16.040000   23.600000
    126          1           0       23.740000   15.680000   22.970000
    127          1           0       22.770000   15.270000   24.070000
    128          8           0       24.440000   18.490000   24.590000
    129          1           0       23.730000   17.850000   24.490000
    130          1           0       25.180000   17.990000   24.910000
    131          8           0       16.800000   20.660000   14.590000
    132          1           0       16.760000   21.560000   14.920000
    133          1           0       16.080000   20.600000   13.960000
    134          8           0       24.550000   22.790000   16.590000
    135          1           0       23.880000   22.690000   15.910000
    136          1           0       25.100000   22.020000   16.490000
    137          8           0       15.620000   17.120000   23.640000
    138          1           0       15.090000   17.790000   23.210000
    139          1           0       16.000000   17.560000   24.400000
    140          8           0       24.310000   21.850000   24.970000
    141          1           0       24.890000   21.440000   25.610000
    142          1           0       23.470000   21.410000   25.080000
    143          8           0       15.330000   25.460000   19.940000
    144          1           0       14.560000   25.620000   19.390000
    145          1           0       15.550000   24.540000   19.790000
    146          8           0       14.570000   15.350000   18.410000
    147          1           0       14.370000   15.340000   19.350000
    148          1           0       15.360000   15.890000   18.340000
    149          8           0       26.160000   18.380000   20.960000
    150          1           0       26.580000   17.770000   21.560000
    151          1           0       26.820000   19.050000   20.790000
    152          8           0       19.880000   15.330000   15.430000
    153          1           0       19.050000   14.930000   15.660000
    154          1           0       20.510000   14.930000   16.030000
    155          8           0       16.310000   25.060000   22.900000
    156          1           0       17.260000   25.190000   22.890000
    157          1           0       16.020000   25.380000   22.040000
    158          8           0       17.800000   26.240000   18.570000
    159          1           0       17.370000   25.640000   17.960000
    160          1           0       17.260000   26.210000   19.360000
    161          8           0       21.280000   19.730000   13.240000
    162          1           0       21.900000   19.550000   12.540000
    163          1           0       21.110000   18.880000   13.640000
    164          8           0       20.660000   24.670000   25.310000
    165          1           0       19.960000   24.610000   24.660000
    166          1           0       21.470000   24.580000   24.810000
    167          8           0       23.150000   22.100000   14.290000
    168          1           0       22.600000   22.860000   14.450000
    169          1           0       22.540000   21.390000   14.090000
    170          8           0       18.450000   24.710000   15.320000
    171          1           0       19.390000   24.520000   15.250000
    172          1           0       18.060000   24.260000   14.570000
    173          8           0       16.380000   24.740000   16.680000
    174          1           0       17.240000   24.760000   16.260000
    175          1           0       15.800000   24.350000   16.030000
    176          8           0       23.450000   25.660000   17.350000
    177          1           0       23.810000   25.790000   16.480000
    178          1           0       22.500000   25.650000   17.220000
    179          8           0       25.200000   24.400000   18.990000
    180          1           0       24.600000   24.810000   18.370000
    181          1           0       25.910000   25.030000   19.100000
    182          8           0       21.680000   13.940000   16.820000
    183          1           0       21.720000   13.130000   16.310000
    184          1           0       21.330000   13.670000   17.670000
    185          8           0       26.640000   21.020000   16.800000
    186          1           0       26.480000   20.710000   17.690000
    187          1           0       27.390000   20.520000   16.500000
    188          8           0       16.040000   19.960000   26.650000
    189          1           0       16.220000   20.200000   27.550000
    190          1           0       16.720000   20.400000   26.140000
    191          8           0       12.500000   21.540000   18.470000
    192          1           0       13.290000   21.190000   18.050000
    193          1           0       12.120000   20.800000   18.930000
    194          8           0       18.460000   12.240000   20.650000
    195          1           0       18.810000   13.070000   20.960000
    196          1           0       19.220000   11.790000   20.260000
    197          8           0       26.240000   22.200000   23.280000
    198          1           0       27.010000   22.600000   23.670000
    199          1           0       25.570000   22.230000   23.960000
    200          8           0       27.910000   20.750000   20.640000
    201          1           0       28.540000   21.400000   20.970000
    202          1           0       27.110000   21.240000   20.500000
    203          8           0       21.280000   27.360000   19.290000
    204          1           0       21.950000   27.130000   19.940000
    205          1           0       21.600000   28.160000   18.880000
    206          8           0       14.220000   15.280000   21.020000
    207          1           0       14.120000   15.860000   21.780000
[...]
   Z335      51.45724   0.00858   0.00000   0.00280   0.00286  51.46010
   X336      28.45928  -0.01067   0.00000  -0.01669  -0.01646  28.44282
   Y336      44.89989   0.00420   0.00000   0.00604   0.00538  44.90528
   Z336      49.66200  -0.01204   0.00000  -0.00855  -0.00848  49.65353
   X337      27.04198  -0.00744   0.00000  -0.00529  -0.00505  27.03693
   Y337      45.31563   0.00246   0.00000   0.00166   0.00085  45.31649
   Z337      52.11865   0.00028   0.00000  -0.00049  -0.00039  52.11826
   X338      48.81163  -0.00259   0.00000  -0.00664  -0.00622  48.80540
   Y338      27.55221   0.01763   0.00000   0.00940   0.00924  27.56145
   Z338      45.24004   0.00216   0.00000   0.00463   0.00366  45.24370
   X339      48.67935   0.00134   0.00000   0.00358   0.00402  48.68337
   Y339      25.77586  -0.01863   0.00000  -0.01173  -0.01189  25.76398
   Z339      45.03217  -0.00470   0.00000  -0.00638  -0.00745  45.02472
   X340      49.60531   0.00066   0.00000   0.00067   0.00109  49.60640
   Y340      27.76008  -0.00246   0.00000  -0.00361  -0.00385  27.75623
   Z340      46.86521   0.00186   0.00000   0.00343   0.00246  46.86767
   X341      27.09867  -0.01704   0.00000  -0.01237  -0.01199  27.08668
   Y341      23.69717  -0.01578   0.00000  -0.00931  -0.00915  23.68801
   Z341      33.59933   0.00058   0.00000  -0.00284  -0.00386  33.59548
   X342      28.70494   0.01572   0.00000   0.01092   0.01130  28.71624
   Y342      23.39481  -0.00158   0.00000  -0.00227  -0.00206  23.39275
   Z342      32.84344  -0.00517   0.00000  -0.00082  -0.00186  32.84158
   X343      27.06088   0.00529   0.00000   0.00783   0.00819  27.06907
   Y343      25.47351   0.01667   0.00000   0.00988   0.01002  25.48353
   Z343      33.90169   0.00486   0.00000   0.00715   0.00623  33.90791
   X344      36.62289   0.02626   0.00000   0.02453   0.02495  36.64784
   Y344      20.99486  -0.00541   0.00000   0.00558   0.00585  21.00071
   Z344      33.61823   0.01564   0.00000   0.01657   0.01535  33.63358
   X345      35.18670  -0.01765   0.00000  -0.01147  -0.01107  35.17563
   Y345      21.90193   0.00073   0.00000  -0.01346  -0.01317  21.88875
   Z345      32.99462  -0.01220   0.00000  -0.00908  -0.01025  32.98437
   X346      37.64334  -0.00308   0.00000  -0.00382  -0.00341  37.63993
   Y346      20.69250  -0.00038   0.00000  -0.00252  -0.00215  20.69035
   Z346      32.14424  -0.00214   0.00000  -0.00139  -0.00263  32.14161
   X347      25.73807   0.01732   0.00000   0.01057   0.01077  25.74884
   Y347      46.05263   0.00279   0.00000   0.00014  -0.00042  46.05221
   Z347      47.16756   0.00078   0.00000   0.00212   0.00227  47.16984
   X348      24.26408  -0.01219   0.00000  -0.00778  -0.00760  24.25649
   Y348      46.95969   0.00661   0.00000   0.00470   0.00410  46.96379
   Z348      47.65889   0.00241   0.00000  -0.00030  -0.00009  47.65880
   X349      25.13336  -0.00277   0.00000   0.00106   0.00127  25.13463
   Y349      44.40856  -0.01459   0.00000  -0.01289  -0.01344  44.39512
   Z349      46.71403  -0.00132   0.00000   0.00126   0.00133  46.71536
   X350      36.41502  -0.00358   0.00000   0.00495   0.00492  36.41995
   Y350      50.00215   0.00184   0.00000   0.00742   0.00814  50.01029
   Z350      24.86880  -0.01875   0.00000  -0.01811  -0.01784  24.85096
   X351      36.05597  -0.00310   0.00000  -0.00455  -0.00458  36.05140
   Y351      51.24937   0.00471   0.00000  -0.00167  -0.00101  51.24836
   Z351      26.11602   0.01102   0.00000   0.00888   0.00923  26.12524
   X352      37.96460   0.01195   0.00000   0.00962   0.00960  37.97420
   Y352      49.24626  -0.00215   0.00000   0.00053   0.00125  49.24751
   Z352      25.39792   0.00662   0.00000   0.00627   0.00649  25.40441
   X353      32.61667   0.00907   0.00000   0.01034   0.01082  32.62749
   Y353      24.15070  -0.01251   0.00000  -0.00750  -0.00797  24.14273
   Z353      47.26205  -0.00719   0.00000  -0.00450  -0.00553  47.25652
   X354      32.84344  -0.00651   0.00000  -0.01172  -0.01125  32.83219
   Y354      25.36012   0.00975   0.00000   0.00817   0.00763  25.36775
   Z354      48.58486   0.00525   0.00000   0.00197   0.00100  48.58586
   X355      31.19938  -0.00201   0.00000   0.00098   0.00144  31.20082
   Y355      24.75541   0.00306   0.00000   0.00143   0.00099  24.75640
   Z355      46.29829   0.00099   0.00000   0.00372   0.00273  46.30102
   X356      42.25428   0.00554   0.00000   0.00104   0.00101  42.25528
   Y356      52.89343  -0.00967   0.00000  -0.01097  -0.01041  52.88302
   Z356      29.57421  -0.00134   0.00000  -0.00243  -0.00205  29.57217
   X357      40.96926  -0.00565   0.00000  -0.00226  -0.00231  40.96695
   Y357      54.06506   0.00599   0.00000   0.00346   0.00402  54.06909
   Z357      29.08289  -0.00022   0.00000   0.00123   0.00168  29.08457
   X358      42.14089   0.00091   0.00000   0.00281   0.00280  42.14369
   Y358      52.83674   0.00134   0.00000   0.00156   0.00202  52.83876
   Z358      31.38835   0.00195   0.00000   0.00074   0.00111  31.38947
   X359      38.55041  -0.00293   0.00000  -0.00056  -0.00036  38.55006
   Y359      48.43368  -0.00082   0.00000  -0.00102  -0.00172  48.43196
   Z359      52.96902   0.01237   0.00000   0.00671   0.00689  52.97591
   X360      38.36144   0.00269   0.00000   0.00491   0.00510  38.36655
   Y360      48.18802  -0.00386   0.00000  -0.00518  -0.00579  48.18223
   Z360      51.17378  -0.01243   0.00000  -0.00833  -0.00816  51.16562
   X361      40.30786   0.00479   0.00000   0.00362   0.00382  40.31168
   Y361      48.83052   0.00548   0.00000   0.00982   0.00914  48.83966
   Z361      53.17689  -0.00355   0.00000  -0.00576  -0.00558  53.17132
   X362      28.02464   0.00943   0.00000   0.00727   0.00738  28.03202
   Y362      38.85277  -0.00629   0.00000  -0.00707  -0.00641  38.84636
   Z362      23.90504  -0.00073   0.00000  -0.00450  -0.00474  23.90030
   X363      26.73962  -0.00566   0.00000  -0.00196  -0.00187  26.73776
   Y363      40.06219   0.00464   0.00000   0.00152   0.00218  40.06438
   Z363      23.50819  -0.00034   0.00000   0.00229   0.00212  23.51032
   X364      27.28765  -0.00591   0.00000  -0.00970  -0.00958  27.27807
   Y364      37.24650  -0.00163   0.00000  -0.00257  -0.00190  37.24461
   Z364      23.48930   0.00037   0.00000   0.00157   0.00126  23.49055
   X365      32.52219  -0.01193   0.00000  -0.01545  -0.01527  32.50691
   Y365      33.22139  -0.00924   0.00000  -0.00843  -0.00761  33.21377
   Z365      22.12869   0.01853   0.00000   0.01497   0.01441  22.14310
   X366      33.35367   0.00776   0.00000   0.00549   0.00565  33.35931
   Y366      33.59933   0.00126   0.00000  -0.00487  -0.00396  33.59537
   Z366      20.57912  -0.00894   0.00000   0.00300   0.00245  20.58156
   X367      31.35056   0.00037   0.00000   0.00226   0.00242  31.35297
   Y367      34.58199   0.01025   0.00000   0.01520   0.01598  34.59797
   Z367      22.37436  -0.00394   0.00000  -0.00566  -0.00614  22.36822
   X368      50.39900  -0.01257   0.00000  -0.01118  -0.01090  50.38810
   Y368      40.11889   0.00496   0.00000   0.00352   0.00316  40.12205
   Z368      49.41634  -0.00397   0.00000  -0.00001  -0.00035  49.41599
   X369      50.92812   0.00948   0.00000   0.01391   0.01421  50.94233
   Y369      38.55041  -0.00199   0.00000   0.00308   0.00276  38.55318
   Z369      48.66045  -0.00053   0.00000   0.00097   0.00055  48.66099
   X370      51.58952   0.00398   0.00000  -0.00193  -0.00164  51.58788
   Y370      40.40234   0.00070   0.00000   0.00151   0.00109  40.40344
   Z370      50.73915   0.00863   0.00000   0.00790   0.00757  50.74671
   X371      21.18383  -0.00422   0.00000  -0.00393  -0.00361  21.18022
   Y371      29.38524  -0.00643   0.00000  -0.00503  -0.00506  29.38018
   Z371      35.81031  -0.00062   0.00000  -0.00279  -0.00347  35.80684
   X372      20.56022   0.00217   0.00000   0.00466   0.00496  20.56518
   Y372      31.02930   0.00588   0.00000   0.00569   0.00567  31.03497
   Z372      35.35678   0.00034   0.00000   0.00268   0.00209  35.35887
   X373      22.97907   0.00410   0.00000   0.00218   0.00250  22.98157
   Y373      29.49862   0.00202   0.00000   0.00229   0.00229  29.50091
   Z373      35.56465   0.00236   0.00000   0.00602   0.00533  35.56998
   X374      24.49085  -0.01466   0.00000  -0.00816  -0.00804  24.48281
   Y374      48.88722   0.00697   0.00000   0.00970   0.00933  48.89655
   Z374      42.91568  -0.00132   0.00000  -0.00083  -0.00052  42.91516
   X375      25.68138   0.00954   0.00000   0.00549   0.00563  25.68701
   Y375      48.26361  -0.00661   0.00000  -0.00662  -0.00703  48.25658
   Z375      44.12511   0.00594   0.00000   0.00103   0.00130  44.12640
   X376      25.47351   0.00706   0.00000   0.00596   0.00607  25.47957
   Y376      49.22737  -0.00120   0.00000  -0.00353  -0.00380  49.22356
   Z376      41.44169  -0.00753   0.00000  -0.00664  -0.00632  41.43537
   X377      45.18335  -0.00975   0.00000  -0.00739  -0.00735  45.17600
   Y377      42.53774   0.01397   0.00000   0.01189   0.01293  42.55066
   Z377      21.01375  -0.00988   0.00000  -0.00649  -0.00667  21.00709
   X378      46.77072   0.00572   0.00000   0.00199   0.00204  46.77276
   Y378      42.12200  -0.00637   0.00000  -0.00899  -0.00790  42.11410
   Z378      20.25786   0.00106   0.00000   0.00384   0.00363  20.26150
   X379      45.16445   0.00041   0.00000  -0.00161  -0.00154  45.16291
   Y379      41.64956  -0.00457   0.00000  -0.00016   0.00079  41.65036
   Z379      22.58223   0.00933   0.00000   0.00418   0.00395  22.58618
   X380      49.00060   0.03167   0.00000   0.02900   0.02942  49.03002
   Y380      23.11135   0.00801   0.00000   0.01081   0.01096  23.12231
   Z380      39.09843   0.00295   0.00000   0.00462   0.00342  39.10185
   X381      48.45258  -0.00942   0.00000  -0.00785  -0.00742  48.44515
   Y381      22.29877   0.00141   0.00000   0.00705   0.00728  22.30605
   Z381      37.56776  -0.00052   0.00000   0.00704   0.00580  37.57356
   X382      47.46992  -0.01455   0.00000  -0.00786  -0.00743  47.46249
   Y382      23.43260  -0.00812   0.00000  -0.01578  -0.01569  23.41692
   Z382      40.00550  -0.00474   0.00000  -0.01243  -0.01361  39.99190
   X383      33.54264  -0.02331   0.00000  -0.01743  -0.01710  33.52554
   Y383      39.89212   0.01247   0.00000   0.00585   0.00495  39.89706
   Z383      55.82251   0.00065   0.00000  -0.00087  -0.00109  55.82142
   X384      34.22294   0.00449   0.00000   0.00178   0.00212  34.22506
   Y384      40.06219   0.00191   0.00000   0.00491   0.00392  40.06612
   Z384      57.48547   0.00669   0.00000   0.00297   0.00275  57.48822
   X385      34.67647   0.01659   0.00000   0.01039   0.01073  34.68720
   Y385      38.79608  -0.01632   0.00000  -0.01162  -0.01247  38.78361
   Z385      54.95324  -0.00712   0.00000  -0.00098  -0.00127  54.95196
         Item               Value     Threshold  Converged?
 Maximum Force            0.040629     0.000450     NO 
 RMS     Force            0.010595     0.000300     NO 
 Maximum Displacement     0.029424     0.001800     NO 
 RMS     Displacement     0.008831     0.001200     NO 
 Predicted change in Energy=-7.235704D-02
 GradGradGradGradGradGradGradGradGradGradGradGradGradGradGradGradGradGrad

 Leave Link  103 at Sat May  5 17:02:09 2018, MaxMem= 14763950080 cpu:      2814.8
 (Enter /cm/shared/gaussian/g09.e01/intel64-sandybridge/g09/l9999.exe)
 1\1\GINC-POPLE01\Force\RPBE1PBE\CC-pVDZ\Br1H256O128(1-)\M.PELUSO\05-Ma
 y-2018\0\\#p PBE1PBE/cc-pvDZ force Counterpoise=2 noSymm\\forces on ch
 loride comput - NWATER: 128\\-1,1\Br,20.,20.,20.\O,22.95,20.03,19.04\H
 ,22.02,19.9,19.22\H,23.39,19.8,19.85\O,19.08,18.18,22.35\H,19.48,18.59
 ,21.58\H,19.45,18.65,23.1\O,21.16,17.08,19.51\H,21.07,18.04,19.49\H,21
 .71,16.88,18.75\O,17.98,21.49,17.77\H,18.46,21.79,17.\H,18.65,21.1,18.
 33\O,16.83,20.81,21.09\H,16.62,19.89,21.24\H,17.54,20.8,20.45\O,21.86,
 22.57,21.97\H,22.48,21.86,22.13\H,21.39,22.29,21.17\O,18.47,16.73,20.0
 9\H,18.54,17.08,20.98\H,19.35,16.85,19.72\O,21.91,19.99,16.53\H,21.61,
 19.11,16.3\H,22.05,19.96,17.48\O,22.17,22.86,18.19\H,22.88,23.18,17.63
 \H,22.53,22.07,18.6\O,18.18,23.78,20.64\H,18.59,23.99,19.8\H,17.6,23.0
 5,20.45\O,16.61,17.08,18.43\H,17.13,17.63,17.83\H,17.12,17.07,19.24\O,
 19.38,23.43,23.07\H,20.24,23.15,22.75\H,18.83,23.43,22.28\O,19.71,21.1
 6,15.52\H,19.53,20.94,14.61\H,20.47,20.63,15.75\O,15.19,20.8,18.07\H,1
 5.28,20.28,17.27\H,16.04,21.24,18.16\O,24.18,20.58,21.97\H,24.03,19.78
 ,22.48\H,25.01,20.92,22.3\O,20.29,17.96,15.54\H,20.32,17.01,15.5\H,19.
 36,18.17,15.7\O,15.08,22.76,19.92\H,15.5,21.91,20.07\H,14.36,22.58,19.
 33\O,17.45,18.34,16.12\H,17.1,17.77,15.44\H,17.39,19.22,15.74\O,25.59,
 21.57,19.63\H,24.83,21.23,20.1\H,25.3,22.4,19.26\O,23.02,16.76,17.64\H
 ,23.02,16.54,16.71\H,23.92,17.05,17.82\O,25.39,18.43,18.14\H,26.03,17.
 93,18.65\H,24.62,18.48,18.71\O,22.95,25.1,20.54\H,22.1,24.65,20.51\H,2
 3.41,24.81,19.75\O,18.5,14.38,17.98\H,18.75,13.87,18.76\H,18.41,15.27,
 18.31\O,15.25,22.32,23.25\H,16.1,22.13,22.85\H,15.28,23.26,23.42\O,19.
 28,19.32,25.4\H,18.84,20.14,25.19\H,19.16,19.21,26.34\O,17.88,21.53,25
 .3\H,18.24,22.06,24.59\H,17.92,22.09,26.07\O,19.49,14.19,22.04\H,19.56
 ,15.13,22.21\H,19.74,13.78,22.87\O,14.03,18.86,19.87\H,14.7,19.37,19.4
 3\H,14.08,17.99,19.47\O,21.3,14.13,19.65\H,20.47,14.39,20.06\H,21.79,1
 4.94,19.55\O,21.47,21.21,25.49\H,20.98,20.41,25.3\H,20.92,21.92,25.16\
 O,18.8,15.85,24.79\H,18.71,16.65,24.27\H,18.06,15.86,25.39\O,21.41,17.
 3,25.46\H,21.7,16.88,24.65\H,21.03,18.13,25.17\O,20.87,23.55,15.01\H,2
 0.4,22.72,15.1\H,21.17,23.75,15.9\O,24.17,15.18,20.94\H,24.,16.04,20.5
 6\H,25.07,14.98,20.7\O,24.27,18.67,15.66\H,24.83,18.85,16.42\H,23.6,19
 .35,15.68\O,14.4,19.67,22.56\H,14.26,19.26,21.71\H,14.81,20.51,22.36\O
 ,19.14,26.54,21.02\H,19.05,25.62,20.75\H,19.71,26.92,20.35\O,14.73,18.
 41,16.46\H,14.3,17.55,16.39\H,15.65,18.2,16.6\O,23.31,24.35,23.89\H,23
 .74,23.65,24.38\H,23.02,23.93,23.08\O,20.37,25.57,17.4\H,19.46,25.61,1
 7.1\H,20.44,26.28,18.03\O,16.72,14.79,22.43\H,16.52,15.46,23.08\H,17.6
 8,14.79,22.37\O,23.1,16.04,23.6\H,23.74,15.68,22.97\H,22.77,15.27,24.0
 7\O,24.44,18.49,24.59\H,23.73,17.85,24.49\H,25.18,17.99,24.91\O,16.8,2
 0.66,14.59\H,16.76,21.56,14.92\H,16.08,20.6,13.96\O,24.55,22.79,16.59\
 H,23.88,22.69,15.91\H,25.1,22.02,16.49\O,15.62,17.12,23.64\H,15.09,17.
 79,23.21\H,16.,17.56,24.4\O,24.31,21.85,24.97\H,24.89,21.44,25.61\H,23
 .47,21.41,25.08\O,15.33,25.46,19.94\H,14.56,25.62,19.39\H,15.55,24.54,
 19.79\O,14.57,15.35,18.41\H,14.37,15.34,19.35\H,15.36,15.89,18.34\O,26
 .16,18.38,20.96\H,26.58,17.77,21.56\H,26.82,19.05,20.79\O,19.88,15.33,
 15.43\H,19.05,14.93,15.66\H,20.51,14.93,16.03\O,16.31,25.06,22.9\H,17.
 26,25.19,22.89\H,16.02,25.38,22.04\O,17.8,26.24,18.57\H,17.37,25.64,17
 .96\H,17.26,26.21,19.36\O,21.28,19.73,13.24\H,21.9,19.55,12.54\H,21.11
 ,18.88,13.64\O,20.66,24.67,25.31\H,19.96,24.61,24.66\H,21.47,24.58,24.
 81\O,23.15,22.1,14.29\H,22.6,22.86,14.45\H,22.54,21.39,14.09\O,18.45,2
 4.71,15.32\H,19.39,24.52,15.25\H,18.06,24.26,14.57\O,16.38,24.74,16.68
 \H,17.24,24.76,16.26\H,15.8,24.35,16.03\O,23.45,25.66,17.35\H,23.81,25
 .79,16.48\H,22.5,25.65,17.22\O,25.2,24.4,18.99\H,24.6,24.81,18.37\H,25
 .91,25.03,19.1\O,21.68,13.94,16.82\H,21.72,13.13,16.31\H,21.33,13.67,1
 7.67\O,26.64,21.02,16.8\H,26.48,20.71,17.69\H,27.39,20.52,16.5\O,16.04
 ,19.96,26.65\H,16.22,20.2,27.55\H,16.72,20.4,26.14\O,12.5,21.54,18.47\
 H,13.29,21.19,18.05\H,12.12,20.8,18.93\O,18.46,12.24,20.65\H,18.81,13.
 07,20.96\H,19.22,11.79,20.26\O,26.24,22.2,23.28\H,27.01,22.6,23.67\H,2
 5.57,22.23,23.96\O,27.91,20.75,20.64\H,28.54,21.4,20.97\H,27.11,21.24,
 20.5\O,21.28,27.36,19.29\H,21.95,27.13,19.94\H,21.6,28.16,18.88\O,14.2
 2,15.28,21.02\H,14.12,15.86,21.78\H,14.76,14.56,21.34\O,16.3,16.57,14.
 36\H,15.38,16.32,14.29\H,16.55,16.81,13.46\O,14.95,22.9,15.16\H,14.29,
 22.25,15.41\H,14.62,23.28,14.35\O,24.75,14.27,16.53\H,23.8,14.38,16.59
 \H,24.86,13.56,15.9\O,26.22,16.72,15.35\H,25.76,15.95,15.68\H,25.62,17
 .45,15.52\O,13.28,20.78,15.63\H,13.77,19.96,15.6\H,12.37,20.5,15.79\O,
 19.65,27.15,23.56\H,18.88,27.57,23.93\H,19.52,27.18,22.62\O,11.35,19.1
 8,20.11\H,12.3,19.06,20.05\H,11.22,19.68,20.91\O,21.59,17.71,28.14\H,2
 1.45,17.53,27.21\H,22.45,17.33,28.33\O,24.81,27.15,21.48\H,24.18,26.49
 ,21.18\H,25.07,26.86,22.35\O,26.34,15.59,18.57\H,25.89,14.9,18.09\H,27
 .24,15.57,18.23\O,17.21,12.23,16.65\H,17.46,13.02,17.13\H,17.22,12.49,
 15.73\O,27.77,19.5,24.36\H,28.35,19.51,23.6\H,26.9,19.66,24.\O,21.46,1
 3.43,24.31\H,21.69,12.51,24.33\H,21.4,13.68,25.24\O,23.42,12.18,21.54\
 H,22.59,12.06,21.08\H,23.3,12.99,22.04\O,21.64,23.01,28.23\H,21.76,22.
 67,27.35\H,21.33,23.91,28.11\O,18.29,24.03,12.7\H,19.14,23.62,12.86\H,
 18.46,24.97,12.76\O,19.7,14.96,12.55\H,19.55,14.05,12.81\H,19.87,15.42
 ,13.37\O,27.09,23.94,16.34\H,26.51,23.19,16.45\H,27.83,23.76,16.92\O,2
 4.05,12.06,18.68\H,23.3,11.55,18.39\H,23.67,12.84,19.1\O,13.65,21.16,2
 5.59\H,14.44,20.74,25.94\H,13.44,20.66,24.8\O,24.84,18.76,27.59\H,24.9
 ,17.81,27.49\H,24.19,19.03,26.94\O,17.46,28.37,22.22\H,16.55,28.28,21.
 92\H,17.94,27.72,21.71\O,22.48,27.35,23.86\H,22.76,26.52,24.23\H,21.54
 ,27.24,23.71\O,15.07,12.79,22.2\H,15.31,12.29,21.42\H,15.86,13.28,22.4
 2\O,12.62,23.97,17.3\H,12.45,23.03,17.39\H,13.48,24.02,16.89\O,17.06,1
 3.77,14.29\H,16.6,13.54,13.48\H,16.93,14.71,14.38\O,11.29,20.64,22.42\
 H,12.12,21.13,22.43\H,11.37,20.04,23.16\O,27.09,16.88,23.11\H,26.76,15
 .98,23.06\H,26.95,17.14,24.02\O,17.59,22.9,27.47\H,16.68,23.2,27.42\H,
 17.64,22.42,28.3\O,24.59,27.92,18.78\H,25.05,27.69,19.58\H,24.22,27.1,
 18.47\O,19.08,18.98,28.45\H,19.96,18.73,28.74\H,18.54,18.22,28.67\O,26
 .38,21.47,14.01\H,26.73,22.35,13.93\H,26.75,21.13,14.83\O,24.24,16.58,
 12.84\H,24.86,16.57,12.11\H,24.77,16.79,13.61\O,14.92,17.44,26.88\H,14
 .88,18.38,26.73\H,14.14,17.1,26.45\O,19.67,14.32,27.62\H,20.58,14.6,27
 .74\H,19.38,14.77,26.82\O,11.34,23.87,19.88\H,11.64,24.77,19.76\H,12.0
 3,23.34,19.47\O,17.66,28.94,17.42\H,17.75,28.07,17.81\H,17.65,28.78,16
 .48\O,28.89,18.22,19.43\H,28.8,17.76,18.6\H,28.59,19.11,19.25\O,12.93,
 16.17,16.22\H,13.17,15.54,16.9\H,13.24,15.77,15.4\O,21.13,10.99,21.35\
 H,21.,10.07,21.61\H,20.73,11.49,22.06\O,24.9,19.88,12.15\H,24.95,20.63
 ,12.74\H,25.81,19.75,11.87\O,16.59,15.11,26.81\H,16.01,15.86,26.68\H,1
 6.9,15.2,27.71\O,15.14,23.67,27.23\H,15.06,23.76,26.28\H,14.31,23.98,2
 7.58\O,25.83,14.58,23.94\H,25.76,13.64,23.83\H,26.25,14.69,24.8\O,14.3
 4,12.54,17.78\H,15.19,12.38,17.38\H,14.32,13.48,17.94\O,19.38,11.11,17
 .79\H,18.62,11.59,17.46\H,19.92,10.95,17.01\O,13.62,24.37,24.96\H,12.8
 4,24.85,25.22\H,13.3,23.5,24.72\O,19.27,26.46,13.16\H,19.08,27.12,13.8
 2\H,20.09,26.06,13.44\O,17.26,12.78,25.01\H,17.38,13.42,25.71\H,16.51,
 13.1,24.5\O,22.36,27.99,15.65\H,21.68,28.61,15.39\H,22.3,27.96,16.61\O
 ,20.4,25.63,28.03\H,20.3,25.5,27.08\H,21.33,25.84,28.14\O,14.83,20.56,
 12.65\H,14.15,21.2,12.44\H,14.44,19.71,12.43\O,17.21,17.58,11.71\H,17.
 65,17.78,10.89\H,16.59,18.3,11.84\O,26.67,21.23,26.15\H,26.95,20.4,25.
 75\H,27.3,21.38,26.85\O,11.21,15.55,18.95\H,10.88,16.42,18.71\H,12.16,
 15.61,18.82\O,12.96,25.87,22.71\H,13.59,25.54,23.35\H,13.48,26.05,21.9
 3\O,23.91,22.51,11.12\H,24.75,22.29,10.72\H,23.9,22.04,11.95\O,25.93,1
 2.23,20.69\H,25.64,11.8,19.88\H,25.12,12.4,21.17\O,17.75,21.11,29.54\H
 ,18.11,21.2,30.42\H,18.35,20.53,29.08\\Version=ES64L-G09RevE.01\HF=-97
 73.4293143\RMSD=9.929e-10\RMSF=1.060e-02\Dipole=6.8667382,-7.8494538,-
 4.3309493\Quadrupole=648.2481857,-554.9364184,-93.3117673,-1514.200196
 9,-1245.8098209,-1943.6924389\PG=C01 [X(Br1H256O128)]\\@


 K N O W I N G  IS A BARRIER WHICH PREVENTS LEARNING

                     -- TEACHING OF THE BENE GESSERIT
 Job cpu time:       5 days 19 hours 23 minutes 40.8 seconds.
 File lengths (MBytes):  RWF=   7285 Int=      0 D2E=      0 Chk=   2411 Scr=      1
 Normal termination of Gaussian 09 at Sat May  5 17:02:37 2018.
